ITEM: TIMESTEP
0
ITEM: NUMBER OF ATOMS
192
ITEM: BOX BOUNDS pp pp pp
0.0000000000000000e+00 1.2464485979498011e+01
0.0000000000000000e+00 1.2464485979498011e+01
0.0000000000000000e+00 1.2443717891802279e+01
ITEM: ATOMS id type xs ys zs
1 1 0.546014 0.669899 0.614914
2 2 0.49898 0.72961 0.589257
3 2 0.539862 0.66333 0.69475
4 1 0.874925 0.256643 0.389014
5 2 0.906559 0.23284 0.319138
6 2 0.933118 0.263571 0.443871
7 1 0.117622 0.193107 0.327127
8 2 0.140488 0.15907 0.396179
9 2 0.17946 0.194211 0.275968
10 1 0.753673 0.181533 0.835444
11 2 0.827561 0.16206 0.811011
12 2 0.728905 0.128717 0.890587
13 1 0.202728 0.962059 0.0367503
14 2 0.241482 0.948819 0.967668
15 2 0.230695 0.0291429 0.0707375
16 1 0.109289 0.598524 0.85978
17 2 0.144287 0.530888 0.885007
18 2 0.0308499 0.585647 0.849034
19 1 0.759395 0.911029 0.414645
20 2 0.681188 0.92192 0.400523
21 2 0.790445 0.86362 0.357789
22 1 0.769429 0.769191 0.243024
23 2 0.72292 0.704313 0.250873
24 2 0.821555 0.757647 0.183064
25 1 0.444313 0.788301 0.164422
26 2 0.421474 0.71886 0.197491
27 2 0.484551 0.831691 0.21866
28 1 0.288889 0.686017 0.777776
29 2 0.225285 0.647724 0.808189
30 2 0.286561 0.68238 0.697549
31 1 0.314196 0.965588 0.344939
32 2 0.270072 0.903773 0.319097
33 2 0.33348 0.0124603 0.282668
34 1 0.635732 0.184052 0.648033
35 2 0.668589 0.129339 0.599367
36 2 0.676982 0.186988 0.716876
37 1 0.537674 0.19201 0.377948
38 2 0.49409 0.233806 0.43083
39 2 0.614713 0.19285 0.400301
40 1 0.457616 0.506756 0.9377
41 2 0.495485 0.572325 0.911192
42 2 0.497249 0.441374 0.913407
43 1 0.952387 0.0884309 0.732955
44 2 0.910849 0.0312459 0.694969
45 2 0.030795 0.0722735 0.727975
46 1 0.0485783 0.624078 0.381469
47 2 0.0181417 0.693417 0.354979
48 2 0.0265852 0.612589 0.457872
49 1 0.025454 0.848121 0.638114
50 2 0.993248 0.77466 0.638192
51 2 0.0224704 0.878542 0.563833
52 1 0.36114 0.269713 0.513152
53 2 0.354139 0.349431 0.507703
54 2 0.290861 0.235422 0.495273
55 1 0.305458 0.890332 0.853652
56 2 0.378194 0.895809 0.887071
57 2 0.293193 0.815177 0.828412
58 1 0.546402 0.989107 0.332764
59 2 0.473482 0.959668 0.34859
60 2 0.552813 0.0627624 0.36392
61 1 0.600597 0.340502 0.916125
62 2 0.586632 0.271521 0.877587
63 2 0.649035 0.326936 0.978707
64 1 0.148684 0.173713 0.537459
65 2 0.0807672 0.2132 0.553663
66 2 0.167925 0.126982 0.59985
67 1 0.715622 0.975209 0.173938
68 2 0.654301 0.985871 0.224616
69 2 0.743552 0.900368 0.18119
70 1 0.89676 0.554589 0.815909
71 2 0.833955 0.596896 0.842399
72 2 0.914807 0.497398 0.869264
73 1 0.635101 0.0740841 0.0083138
74 2 0.670689 0.0374758 0.0702798
75 2 0.595369 0.138583 0.0347187
76 1 0.926716 0.720373 0.0842705
77 2 0.00688122 0.720705 0.0869231
78 2 0.90246 0.726206 0.00791144
79 1 0.208289 0.79172 0.247812
80 2 0.215846 0.719377 0.281679
81 2 0.201546 0.783502 0.168177
82 1 0.428824 0.131658 0.650991
83 2 0.404376 0.183382 0.594678
84 2 0.502323 0.151977 0.675906
85 1 0.967399 0.256527 0.581098
86 2 0.941184 0.189854 0.617231
87 2 0.923997 0.319221 0.606028
88 1 0.496231 0.885024 0.956409
89 2 0.544303 0.947229 0.972352
90 2 0.476528 0.848248 0.0250279
91 1 0.228721 0.466708 0.15258
92 2 0.152707 0.491004 0.16067
93 2 0.246708 0.460628 0.0745195
94 1 0.759604 0.443809 0.440245
95 2 0.794061 0.372406 0.428058
96 2 0.784907 0.474159 0.510163
97 1 0.728322 0.113385 0.450506
98 2 0.756453 0.0384357 0.455501
99 2 0.786813 0.162293 0.425554
100 1 0.989684 0.167343 0.934304
101 2 0.965324 0.242619 0.94751
102 2 0.971442 0.146117 0.85901
103 1 0.153213 0.400658 0.657229
104 2 0.199886 0.440959 0.605849
105 2 0.0787567 0.396145 0.627691
106 1 0.318643 0.483328 0.51077
107 2 0.397779 0.489821 0.522145
108 2 0.299329 0.513773 0.439001
109 1 0.438157 0.805791 0.475774
110 2 0.380139 0.847283 0.439024
111 2 0.489337 0.856652 0.510868
112 1 0.245658 0.44782 0.934645
113 2 0.240582 0.369679 0.917239
114 2 0.322725 0.470031 0.935661
115 1 0.882145 0.137791 0.173993
116 2 0.825971 0.0811141 0.182119
117 2 0.953715 0.103171 0.163348
118 1 0.249687 0.586235 0.325438
119 2 0.246987 0.5423 0.258274
120 2 0.175277 0.596925 0.353459
121 1 0.0592002 0.00585693 0.214002
122 2 0.113949 0.957534 0.180763
123 2 0.0961286 0.0668987 0.250722
124 1 0.777043 0.915567 0.897689
125 2 0.841246 0.929379 0.943818
126 2 0.712322 0.948905 0.931412
127 1 0.58184 0.448616 0.130528
128 2 0.61091 0.499239 0.185628
129 2 0.537664 0.489354 0.0773111
130 1 0.465176 0.644517 0.322415
131 2 0.394576 0.606811 0.317155
132 2 0.458281 0.707441 0.371758
133 1 0.78413 0.379839 0.689166
134 2 0.719302 0.334442 0.676099
135 2 0.806951 0.372493 0.765837
136 1 0.53691 0.484763 0.505374
137 2 0.565392 0.548579 0.54481
138 2 0.596971 0.448112 0.466799
139 1 0.731154 0.707015 0.871538
140 2 0.659385 0.700013 0.836353
141 2 0.7437 0.783634 0.891714
142 1 0.745807 0.282234 0.0748704
143 2 0.700336 0.280227 0.141026
144 2 0.808875 0.233589 0.0843602
145 1 0.292664 0.178247 0.199335
146 2 0.252256 0.203793 0.13482
147 2 0.367468 0.207113 0.197144
148 1 0.267621 0.254832 0.780571
149 2 0.21813 0.302753 0.739418
150 2 0.305088 0.205278 0.729749
151 1 0.971629 0.479663 0.116546
152 2 0.949811 0.458497 0.190897
153 2 0.945626 0.553974 0.101177
154 1 0.550321 0.959574 0.600064
155 2 0.504082 0.0210223 0.622901
156 2 0.615807 0.9568 0.646375
157 1 0.744816 0.69487 0.543784
158 2 0.756379 0.751249 0.487821
159 2 0.66613 0.684107 0.555038
160 1 0.536881 0.218072 0.161082
161 2 0.537845 0.29453 0.136816
162 2 0.528936 0.2154 0.240986
163 1 0.148293 0.742146 0.0357619
164 2 0.178324 0.816242 0.0293042
165 2 0.155922 0.704009 0.965495
166 1 0.672326 0.569442 0.300901
167 2 0.598435 0.580701 0.330053
168 2 0.709421 0.512455 0.343517
169 1 0.786457 0.919464 0.675621
170 2 0.776293 0.845176 0.647086
171 2 0.79374 0.91672 0.755586
172 1 0.513517 0.712015 0.821414
173 2 0.51686 0.769548 0.877296
174 2 0.436926 0.692656 0.807506
175 1 0.00338005 0.930048 0.438368
176 2 0.0317215 0.951292 0.366281
177 2 0.923698 0.939168 0.439479
178 1 0.962117 0.952717 0.994852
179 2 0.957501 0.0298884 0.97344
180 2 0.0372912 0.935542 0.0169695
181 1 0.886526 0.369257 0.942452
182 2 0.916131 0.397826 0.0114213
183 2 0.81211 0.341921 0.954666
184 1 0.929283 0.611897 0.609124
185 2 0.924179 0.588439 0.685785
186 2 0.857113 0.635899 0.583606
187 1 0.189592 0.00741323 0.705814
188 2 0.252708 0.993514 0.753399
189 2 0.142339 0.942613 0.704492
190 1 0.223431 0.194923 0.989452
191 2 0.257581 0.21903 0.920882
192 2 0.146194 0.177806 0.976197
ITEM: TIMESTEP
100
ITEM: NUMBER OF ATOMS
192
ITEM: BOX BOUNDS pp pp pp
0.0000000000000000e+00 1.2464485979498011e+01
0.0000000000000000e+00 1.2464485979498011e+01
0.0000000000000000e+00 1.2443717891802279e+01
ITEM: ATOMS id type xs ys zs
1 1 0.55188 0.678508 0.609437
2 2 0.497933 0.716811 0.563509
3 2 0.531174 0.690577 0.687421
4 1 0.861107 0.251818 0.389544
5 2 0.864494 0.19938 0.323694
6 2 0.914555 0.231312 0.445423
7 1 0.176339 0.151452 0.313724
8 2 0.156351 0.220806 0.352754
9 2 0.243887 0.162075 0.273305
10 1 0.741283 0.16244 0.86188
11 2 0.812761 0.136123 0.883845
12 2 0.68648 0.123457 0.909341
13 1 0.190406 0.948016 0.990496
14 2 0.231929 0.938722 0.92118
15 2 0.209552 0.0172421 0.0204846
16 1 0.165342 0.591611 0.851076
17 2 0.196186 0.524897 0.882223
18 2 0.0976622 0.571791 0.809284
19 1 0.732124 0.881025 0.383238
20 2 0.659514 0.907913 0.386443
21 2 0.744032 0.843684 0.312009
22 1 0.771089 0.796362 0.191545
23 2 0.715302 0.740161 0.20993
24 2 0.840829 0.757758 0.168609
25 1 0.513108 0.784364 0.15539
26 2 0.477452 0.72465 0.198069
27 2 0.530825 0.845227 0.202755
28 1 0.307984 0.69388 0.719766
29 2 0.260443 0.656781 0.775872
30 2 0.297894 0.658252 0.647539
31 1 0.32222 0.930573 0.352121
32 2 0.280375 0.870591 0.317197
33 2 0.322808 -0.00703061 0.298563
34 1 0.596721 0.202035 0.704353
35 2 0.628132 0.199174 0.628346
36 2 0.660808 0.19541 0.756866
37 1 0.51318 0.171476 0.360668
38 2 0.445129 0.209304 0.379371
39 2 0.55986 0.17412 0.42739
40 1 0.465115 0.497686 0.950587
41 2 0.486375 0.569228 0.91953
42 2 0.517753 0.438802 0.931206
43 1 0.956215 0.0637547 0.742214
44 2 0.912543 0.00939402 0.698193
45 2 0.0328895 0.0381378 0.736027
46 1 0.0370605 0.611601 0.413447
47 2 0.983699 0.623522 0.353665
48 2 -0.00201097 0.618688 0.482843
49 1 -0.0027701 0.850447 0.626986
50 2 0.988961 0.771886 0.617933
51 2 0.994119 0.885094 0.553222
52 1 0.349049 0.273877 0.447388
53 2 0.350162 0.353717 0.44532
54 2 0.28218 0.247957 0.488163
55 1 0.31997 0.893503 0.824055
56 2 0.386607 0.899327 0.862071
57 2 0.322756 0.824302 0.783774
58 1 0.536354 0.967795 0.298411
59 2 0.464654 0.933517 0.318271
60 2 0.538001 0.0397178 0.333974
61 1 0.598101 0.343596 0.919712
62 2 0.616973 0.27648 0.883769
63 2 0.602534 0.330212 -7.24756e-05
64 1 0.182788 0.174017 0.564854
65 2 0.145617 0.232683 0.610003
66 2 0.175199 0.104625 0.603567
67 1 0.725855 0.0100148 0.189001
68 2 0.655671 -0.0092054 0.222317
69 2 0.768612 0.939683 0.185051
70 1 0.904398 0.563585 0.789754
71 2 0.840311 0.607458 0.806639
72 2 0.891303 0.486242 0.809624
73 1 0.615694 0.0663635 0.0143788
74 2 0.667299 0.0458395 0.0756044
75 2 0.561934 0.118864 0.0376941
76 1 0.943708 0.703494 0.113196
77 2 0.0256039 0.708715 0.102759
78 2 0.904997 0.725993 0.0447791
79 1 0.198394 0.805616 0.224357
80 2 0.154089 0.745811 0.25183
81 2 0.197033 0.802879 0.142936
82 1 0.422725 0.111567 0.633588
83 2 0.37802 0.152235 0.576997
84 2 0.485251 0.1536 0.661872
85 1 0.942669 0.248853 0.608939
86 2 0.94947 0.17721 0.649249
87 2 0.882692 0.292233 0.641821
88 1 0.498265 0.896466 0.947188
89 2 0.527439 0.971572 0.957964
90 2 0.507321 0.854342 0.0130905
91 1 0.192137 0.470096 0.169686
92 2 0.112231 0.484007 0.152942
93 2 0.224103 0.416976 0.117739
94 1 0.746022 0.435046 0.449798
95 2 0.79114 0.36761 0.429682
96 2 0.775785 0.465482 0.518677
97 1 0.70327 0.150928 0.510057
98 2 0.739412 0.0837098 0.539411
99 2 0.752711 0.189973 0.461327
100 1 0.0288869 0.195045 0.905594
101 2 0.984248 0.260142 0.917783
102 2 -0.00154198 0.157379 0.842074
103 1 0.151889 0.412982 0.648806
104 2 0.212611 0.458463 0.625436
105 2 0.0818793 0.452772 0.636385
106 1 0.323371 0.50398 0.544654
107 2 0.405847 0.503324 0.544162
108 2 0.294098 0.537693 0.474675
109 1 0.42975 0.805925 0.492328
110 2 0.374211 0.850884 0.450148
111 2 0.477133 0.856124 0.535544
112 1 0.271574 0.42295 0.943437
113 2 0.251075 0.376902 0.879449
114 2 0.351586 0.447057 0.938498
115 1 0.895011 0.132526 0.20516
116 2 0.836366 0.0792688 0.195696
117 2 0.966206 0.0951621 0.203873
118 1 0.230921 0.585514 0.353733
119 2 0.231152 0.529027 0.29253
120 2 0.15365 0.598921 0.376977
121 1 0.0682027 -0.00035807 0.219379
122 2 0.116376 0.934864 0.215519
123 2 0.108634 0.0574794 0.256732
124 1 0.750371 0.909488 0.914297
125 2 0.817816 0.945589 0.943911
126 2 0.688248 0.922001 0.962221
127 1 0.540947 0.462069 0.145961
128 2 0.599288 0.514573 0.161088
129 2 0.503596 0.485925 0.0787753
130 1 0.441627 0.663477 0.343857
131 2 0.365312 0.633221 0.35001
132 2 0.448219 0.727709 0.392658
133 1 0.781251 0.357433 0.707116
134 2 0.704636 0.377539 0.704498
135 2 0.797454 0.337346 0.786552
136 1 0.532662 0.471374 0.544687
137 2 0.542993 0.54426 0.579421
138 2 0.605914 0.443862 0.516323
139 1 0.750247 0.686413 0.856854
140 2 0.680833 0.662991 0.889069
141 2 0.755612 0.766998 0.855558
142 1 0.773741 0.291542 0.0971507
143 2 0.699408 0.298695 0.128908
144 2 0.814878 0.232082 0.136372
145 1 0.350431 0.125103 0.169533
146 2 0.298506 0.134133 0.107776
147 2 0.416214 0.170551 0.157213
148 1 0.252139 0.269064 0.77659
149 2 0.19833 0.308237 0.7297
150 2 0.287712 0.208594 0.735118
151 1 0.989634 0.493088 0.139194
152 2 0.927355 0.447373 0.172359
153 2 0.971291 0.570464 0.135473
154 1 0.581692 0.938157 0.571296
155 2 0.51207 0.978021 0.596821
156 2 0.642986 0.958543 0.621385
157 1 0.770239 0.740913 0.54341
158 2 0.768285 0.788245 0.475155
159 2 0.694926 0.726106 0.566952
160 1 0.556347 0.251023 0.173009
161 2 0.542523 0.330183 0.179046
162 2 0.54567 0.216761 0.246404
163 1 0.133517 0.743678 0.0222907
164 2 0.155992 0.818407 0.998967
165 2 0.154981 0.6941 0.964605
166 1 0.644151 0.620323 0.278027
167 2 0.56879 0.63628 0.305098
168 2 0.667289 0.548334 0.312994
169 1 0.776246 0.959817 0.659804
170 2 0.77208 0.890704 0.617083
171 2 0.773539 0.948101 0.739705
172 1 0.485784 0.696408 0.849436
173 2 0.484817 0.76131 0.896257
174 2 0.41376 0.688094 0.804759
175 1 0.974941 0.939877 0.430586
176 2 0.012729 0.970414 0.365955
177 2 0.897417 0.944047 0.412515
178 1 0.944437 0.98511 0.995433
179 2 0.979027 0.0433222 0.947301
180 2 0.993835 0.963664 0.0516118
181 1 0.901432 0.358987 0.93647
182 2 0.950121 0.413849 0.966823
183 2 0.856814 0.32509 0.998715
184 1 0.935771 0.63322 0.603599
185 2 0.930958 0.598612 0.677606
186 2 0.862175 0.661692 0.578982
187 1 0.163484 0.986974 0.699232
188 2 0.227767 0.95456 0.741313
189 2 0.112997 0.928485 0.680523
190 1 0.242932 0.166649 0.984682
191 2 0.286948 0.216192 0.938344
192 2 0.166896 0.173313 0.960593
ITEM: TIMESTEP
200
ITEM: NUMBER OF ATOMS
192
ITEM: BOX BOUNDS pp pp pp
0.0000000000000000e+00 1.2464485979498011e+01
0.0000000000000000e+00 1.2464485979498011e+01
0.0000000000000000e+00 1.2443717891802279e+01
ITEM: ATOMS id type xs ys zs
1 1 0.582151 0.663507 0.628859
2 2 0.510822 0.672237 0.585419
3 2 0.562032 0.662682 0.709023
4 1 0.822738 0.260395 0.419265
5 2 0.841508 0.231881 0.346782
6 2 0.890696 0.25828 0.467751
7 1 0.254712 0.0976538 0.298613
8 2 0.265389 0.149661 0.361059
9 2 0.311664 0.117638 0.241897
10 1 0.7476 0.145681 0.874367
11 2 0.820585 0.107407 0.870566
12 2 0.70558 0.111844 0.934805
13 1 0.17651 0.932547 0.92792
14 2 0.21455 0.911778 0.8597
15 2 0.203164 0.0090584 0.946916
16 1 0.174622 0.600895 0.839979
17 2 0.20804 0.531213 0.872461
18 2 0.095837 0.584016 0.827045
19 1 0.693649 0.852713 0.391232
20 2 0.623954 0.89997 0.38806
21 2 0.69483 0.801183 0.325248
22 1 0.775695 0.81081 0.176813
23 2 0.714791 0.776641 0.134322
24 2 0.843228 0.770281 0.162779
25 1 0.567786 0.809026 0.111264
26 2 0.549865 0.746211 0.159119
27 2 0.568642 0.87603 0.159776
28 1 0.335251 0.675071 0.717863
29 2 0.266625 0.659236 0.759596
30 2 0.335573 0.627189 0.652744
31 1 0.31466 0.900283 0.331888
32 2 0.252615 0.850737 0.311219
33 2 0.290985 0.975801 0.316015
34 1 0.55655 0.199656 0.734688
35 2 0.603112 0.204064 0.668113
36 2 0.601779 0.165463 0.791721
37 1 0.54585 0.176872 0.376152
38 2 0.48119 0.214318 0.413252
39 2 0.594475 0.150246 0.435223
40 1 0.469686 0.502867 0.954957
41 2 0.472921 0.573334 0.913032
42 2 0.543835 0.465037 0.958661
43 1 0.955309 0.0945511 0.744882
44 2 0.89233 0.058445 0.70806
45 2 0.0216096 0.0549692 0.718342
46 1 0.0429482 0.600392 0.376832
47 2 0.985675 0.578258 0.322889
48 2 0.00149849 0.619612 0.446448
49 1 0.987846 0.880423 0.579772
50 2 0.986922 0.797375 0.58176
51 2 0.972148 0.901248 0.500513
52 1 0.320242 0.267408 0.445691
53 2 0.304598 0.347195 0.444945
54 2 0.267945 0.23501 0.4996
55 1 0.319111 0.88958 0.767386
56 2 0.382755 0.899594 0.822098
57 2 0.329226 0.810728 0.744192
58 1 0.534019 0.984224 0.282959
59 2 0.477252 0.933476 0.308702
60 2 0.51152 0.0609014 0.308612
61 1 0.635413 0.35572 0.9051
62 2 0.561219 0.331987 0.879512
63 2 0.675087 0.283696 0.915921
64 1 0.185499 0.172608 0.591384
65 2 0.113298 0.194989 0.565477
66 2 0.173741 0.106196 0.640575
67 1 0.726086 0.0187663 0.185963
68 2 0.663022 1.02101 0.239382
69 2 0.75327 0.94069 0.188815
70 1 0.973881 0.58524 0.834641
71 2 0.900757 0.625401 0.843117
72 2 0.960184 0.506262 0.851655
73 1 0.585027 0.0696271 0.00871347
74 2 0.626553 0.0706372 0.0794301
75 2 0.504682 0.0877492 0.022291
76 1 0.90545 0.671443 0.0519413
77 2 -0.0175077 0.692016 0.0532801
78 2 0.867297 0.699372 -0.0125472
79 1 0.161522 0.776746 0.228
80 2 0.121379 0.711407 0.257418
81 2 0.156117 0.765635 0.147271
82 1 0.391894 0.107051 0.599396
83 2 0.316 0.133983 0.589855
84 2 0.426851 0.132233 0.670081
85 1 0.963467 0.244745 0.58555
86 2 0.966793 0.190161 0.645097
87 2 0.939108 0.314805 0.620611
88 1 0.474097 0.869484 0.929357
89 2 0.495819 0.948538 0.92947
90 2 0.501258 0.834549 0.00175917
91 1 0.179263 0.457423 0.165696
92 2 0.0994012 0.448165 0.166976
93 2 0.206572 0.456355 0.0877044
94 1 0.719199 0.448606 0.461323
95 2 0.750317 0.383794 0.426348
96 2 0.770784 0.470219 0.518342
97 1 0.694954 0.164979 0.573442
98 2 0.727583 0.100423 0.610395
99 2 0.74945 0.197661 0.517842
100 1 0.0320881 0.195512 0.923861
101 2 -0.015791 0.26387 0.932025
102 2 0.0052263 0.159599 0.853432
103 1 0.167921 0.433702 0.657345
104 2 0.230419 0.472931 0.616285
105 2 0.100037 0.444775 0.614776
106 1 0.327165 0.538651 0.552292
107 2 0.39518 0.492002 0.546445
108 2 0.294594 0.54905 0.47756
109 1 0.408966 0.810505 0.528745
110 2 0.332515 0.827142 0.511602
111 2 0.450495 0.879522 0.547817
112 1 0.262081 0.429216 0.973231
113 2 0.244851 0.373958 0.916069
114 2 0.340411 0.447248 0.970548
115 1 0.889295 0.142972 0.254907
116 2 0.821903 0.0973886 0.230134
117 2 0.958118 0.10068 0.23944
118 1 0.245967 0.556813 0.357694
119 2 0.242077 0.51365 0.288865
120 2 0.170895 0.591182 0.370839
121 1 0.0590929 0.991846 0.239793
122 2 0.0813247 0.916279 0.221615
123 2 0.12622 0.0340195 0.267325
124 1 0.75549 0.892208 0.922041
125 2 0.815261 0.943119 0.944225
126 2 0.68666 0.914498 0.960934
127 1 0.516954 0.445509 0.176443
128 2 0.521389 0.511591 0.22542
129 2 0.467119 0.467287 0.114428
130 1 0.440918 0.701578 0.313803
131 2 0.379236 0.65112 0.296743
132 2 0.422835 0.750586 0.377634
133 1 0.810793 0.385393 0.758871
134 2 0.733696 0.396685 0.782354
135 2 0.851919 0.379484 0.828081
136 1 0.518492 0.470427 0.552448
137 2 0.547493 0.53934 0.586359
138 2 0.576564 0.439398 0.506915
139 1 0.760696 0.659896 0.876474
140 2 0.68882 0.621262 0.871868
141 2 0.748504 0.741395 0.870432
142 1 0.802051 0.294815 0.11424
143 2 0.72565 0.27391 0.115657
144 2 0.845626 0.236156 0.148933
145 1 0.40377 0.131801 0.107695
146 2 0.350011 0.150594 0.0486317
147 2 0.448162 0.196919 0.127042
148 1 0.288224 0.271498 0.795659
149 2 0.325358 0.327101 0.749607
150 2 0.218874 0.251253 0.759184
151 1 0.941415 0.464755 0.154525
152 2 0.885918 0.415023 0.182075
153 2 0.908466 0.532914 0.1236
154 1 0.559898 0.959018 0.57796
155 2 0.515268 1.02377 0.58586
156 2 0.636485 -0.0203192 0.567223
157 1 0.771968 0.756796 0.583627
158 2 0.761497 0.802164 0.517891
159 2 0.699981 0.718183 0.599077
160 1 0.575587 0.251208 0.164371
161 2 0.557367 0.332663 0.154787
162 2 0.55197 0.230764 0.239746
163 1 0.132856 0.72934 0.0215132
164 2 0.157183 0.800956 0.987285
165 2 0.15151 0.669655 0.965572
166 1 0.648604 0.613727 0.29461
167 2 0.57722 0.639654 0.325779
168 2 0.674789 0.553034 0.341137
169 1 0.796606 0.98266 0.652036
170 2 0.851456 0.93783 0.610513
171 2 0.750384 0.935299 0.69926
172 1 0.509536 0.693621 0.836147
173 2 0.495871 0.769778 0.868168
174 2 0.456828 0.677456 0.779689
175 1 0.921338 0.929753 0.395066
176 2 0.956532 0.972 0.336134
177 2 0.850561 0.904957 0.360533
178 1 0.905283 0.0299211 0.0102396
179 2 0.959279 0.0762357 0.973432
180 2 0.942106 0.996431 0.0760289
181 1 0.912872 0.375285 0.938384
182 2 0.950436 0.413789 0.000545486
183 2 0.840903 0.355965 -0.0321783
184 1 0.938765 0.628134 0.606266
185 2 0.946789 0.603931 0.68427
186 2 0.873879 0.675537 0.595805
187 1 0.147048 0.993293 0.676994
188 2 0.210797 0.951453 0.702681
189 2 0.0968122 0.942981 0.63371
190 1 0.249115 0.151151 0.972504
191 2 0.277448 0.181563 0.902774
192 2 0.169232 0.177771 0.979875
ITEM: TIMESTEP
300
ITEM: NUMBER OF ATOMS
192
ITEM: BOX BOUNDS pp pp pp
0.0000000000000000e+00 1.2464485979498011e+01
0.0000000000000000e+00 1.2464485979498011e+01
0.0000000000000000e+00 1.2443717891802279e+01
ITEM: ATOMS id type xs ys zs
1 1 0.562462 0.668166 0.613738
2 2 0.516293 0.710513 0.564702
3 2 0.544268 0.695424 0.683346
4 1 0.813997 0.26831 0.462208
5 2 0.843638 0.248423 0.390065
6 2 0.875978 0.269357 0.514292
7 1 0.294255 0.0734977 0.253016
8 2 0.282353 0.145536 0.28045
9 2 0.343899 0.0790858 0.188256
10 1 0.728911 0.165097 0.90102
11 2 0.80655 0.145886 0.893424
12 2 0.693491 0.107038 0.943241
13 1 0.177256 0.919097 0.901736
14 2 0.223373 0.901849 0.836081
15 2 0.17764 0.00254764 0.908231
16 1 0.174125 0.602864 0.865683
17 2 0.197875 0.532279 0.896587
18 2 0.0969604 0.590172 0.848111
19 1 0.667976 0.784162 0.400017
20 2 0.61594 0.84249 0.383463
21 2 0.6565 0.725401 0.351721
22 1 0.793847 0.812119 0.161366
23 2 0.713932 0.803233 0.146918
24 2 0.830669 0.740255 0.154153
25 1 0.550837 0.807132 0.141655
26 2 0.505827 0.762409 0.191841
27 2 0.53709 0.883485 0.165115
28 1 0.360135 0.643813 0.738015
29 2 0.302491 0.61065 0.783443
30 2 0.347839 0.618697 0.659867
31 1 0.273571 0.876893 0.356934
32 2 0.214901 0.847256 0.308633
33 2 0.270546 0.958052 0.349808
34 1 0.523735 0.201448 0.760347
35 2 0.582526 0.205054 0.705094
36 2 0.557094 0.165113 0.823424
37 1 0.515002 0.201428 0.410023
38 2 0.437258 0.211735 0.389121
39 2 0.518522 0.187743 0.488523
40 1 0.50135 0.473052 0.979399
41 2 0.513822 0.545623 0.945962
42 2 0.552222 0.420449 0.947877
43 1 0.981449 0.125842 0.745189
44 2 0.914249 0.0837787 0.725557
45 2 0.0426785 0.0774083 0.714027
46 1 0.0295453 0.606331 0.369171
47 2 1.00338 0.543921 0.329109
48 2 -0.00790133 0.604464 0.440828
49 1 0.979852 0.870964 0.552836
50 2 0.986494 0.79131 0.541147
51 2 0.927841 0.894439 0.496464
52 1 0.301587 0.259583 0.382878
53 2 0.26058 0.319327 0.34641
54 2 0.271828 0.256829 0.456466
55 1 0.311403 0.866097 0.73628
56 2 0.389004 0.883894 0.759116
57 2 0.311934 0.788441 0.718776
58 1 0.528754 0.964845 0.327011
59 2 0.472252 0.925093 0.369516
60 2 0.516235 0.0418012 0.345545
61 1 0.632657 0.375684 0.839499
62 2 0.59911 0.369964 0.765654
63 2 0.670363 0.309234 0.849758
64 1 0.204979 0.233615 0.592276
65 2 0.152434 0.283334 0.627129
66 2 0.174266 0.158086 0.597557
67 1 0.715235 0.00391453 0.202353
68 2 0.65813 -0.00915852 0.259507
69 2 0.754925 0.935064 0.198868
70 1 0.955378 0.578326 0.797204
71 2 0.897564 0.627709 0.825238
72 2 0.916521 0.510211 0.779153
73 1 0.608006 0.020637 0.0188941
74 2 0.666088 0.00980214 0.0738892
75 2 0.538594 0.0392027 0.0587147
76 1 0.900667 0.639845 0.07498
77 2 0.961051 0.688659 0.0508865
78 2 0.836319 0.648591 0.0244661
79 1 0.0944979 0.78017 0.255148
80 2 0.0647623 0.714881 0.294352
81 2 0.0931909 0.752166 0.179936
82 1 0.388447 0.122777 0.614139
83 2 0.31651 0.14923 0.603499
84 2 0.423123 0.15021 0.680941
85 1 0.975564 0.293239 0.60509
86 2 0.972202 0.226105 0.648281
87 2 0.928204 0.345046 0.641671
88 1 0.460859 0.895207 0.890467
89 2 0.525371 0.923506 0.929174
90 2 0.400797 0.897738 0.94373
91 1 0.153978 0.437449 0.164611
92 2 0.0763885 0.433109 0.182006
93 2 0.166383 0.419588 0.0875743
94 1 0.739806 0.466942 0.467427
95 2 0.766091 0.390412 0.471994
96 2 0.799974 0.513659 0.496972
97 1 0.675352 0.165807 0.610386
98 2 0.720016 0.110679 0.647563
99 2 0.721673 0.212495 0.56457
100 1 0.0119608 0.201749 0.955498
101 2 0.997656 0.281035 0.9483
102 2 -0.00597493 0.171683 0.882005
103 1 0.164714 0.424648 0.699216
104 2 0.0855865 0.423759 0.689351
105 2 0.195115 0.471596 0.644007
106 1 0.332167 0.563358 0.538224
107 2 0.396379 0.515432 0.545786
108 2 0.30933 0.560632 0.461632
109 1 0.452514 0.795661 0.480746
110 2 0.377977 0.811056 0.456818
111 2 0.484461 0.861319 0.515053
112 1 0.274048 0.422408 0.966453
113 2 0.303111 0.383432 0.902432
114 2 0.334714 0.441975 1.01565
115 1 0.880413 0.161153 0.261387
116 2 0.816742 0.114503 0.254191
117 2 0.943509 0.124531 0.228649
118 1 0.262714 0.55168 0.323568
119 2 0.244859 0.518706 0.252381
120 2 0.194689 0.570305 0.360286
121 1 0.0711169 3.5658e-05 0.24566
122 2 0.0743653 0.92025 0.265377
123 2 0.140415 0.0256026 0.213527
124 1 0.758309 0.874698 0.918963
125 2 0.82641 0.907941 0.944655
126 2 0.706207 0.93486 0.931353
127 1 0.504254 0.460931 0.195941
128 2 0.568654 0.497083 0.227023
129 2 0.510386 0.472967 0.116643
130 1 0.456033 0.681304 0.296189
131 2 0.394645 0.631094 0.288629
132 2 0.463441 0.709104 0.371621
133 1 0.842852 0.420779 0.7364
134 2 0.775831 0.454292 0.704795
135 2 0.82311 0.397692 0.809072
136 1 0.52631 0.4664 0.552057
137 2 0.541607 0.538405 0.584761
138 2 0.588482 0.446522 0.505463
139 1 0.761002 0.669042 0.856348
140 2 0.683638 0.656313 0.837281
141 2 0.769856 0.748747 0.865513
142 1 0.815786 0.309137 0.114069
143 2 0.732546 0.312421 0.0994621
144 2 0.824509 0.258643 0.177523
145 1 0.414253 0.13153 0.0587427
146 2 0.345171 0.132143 0.0138445
147 2 0.462313 0.183814 0.0209268
148 1 0.335502 0.300248 0.786974
149 2 0.409718 0.296623 0.753309
150 2 0.279784 0.307622 0.729894
151 1 0.934946 0.481466 0.222402
152 2 0.892119 0.421059 0.195946
153 2 0.92561 0.54743 0.173079
154 1 0.551213 0.961395 0.5715
155 2 0.48987 0.00956336 0.594452
156 2 0.61408 0.0116543 0.559616
157 1 0.76986 0.738507 0.581393
158 2 0.725 0.763833 0.517978
159 2 0.719816 0.691816 0.62454
160 1 0.61592 0.283878 0.216822
161 2 0.572156 0.350338 0.223176
162 2 0.607841 0.244979 0.288696
163 1 0.11079 0.740417 0.0278379
164 2 0.130171 0.815751 1.00608
165 2 0.139373 0.691557 0.969608
166 1 0.662873 0.582722 0.294099
167 2 0.592707 0.623756 0.29891
168 2 0.669937 0.541111 0.36119
169 1 0.827331 0.985622 0.673075
170 2 0.886575 0.958895 0.626938
171 2 0.775407 0.923737 0.680141
172 1 0.537883 0.672653 0.84526
173 2 0.513034 0.745771 0.871005
174 2 0.478676 0.63883 0.800736
175 1 0.886382 0.910639 0.363375
176 2 0.927102 0.966942 0.320068
177 2 0.852992 0.86313 0.306808
178 1 0.875239 0.0221935 0.0117943
179 2 0.92453 0.084139 1.02652
180 2 0.863615 0.982915 0.0837063
181 1 0.940847 0.408983 0.975601
182 2 0.928784 0.490203 0.975808
183 2 0.888503 0.378661 0.0292208
184 1 0.960624 0.623922 0.574269
185 2 0.979198 0.614011 0.652089
186 2 0.886427 0.659848 0.56491
187 1 0.124194 0.997857 0.651545
188 2 0.180914 0.958737 0.693636
189 2 0.0754131 0.941327 0.614924
190 1 0.242945 0.143905 0.916118
191 2 0.280982 0.197677 0.867581
192 2 0.171198 0.173825 0.930523
ITEM: TIMESTEP
400
ITEM: NUMBER OF ATOMS
192
ITEM: BOX BOUNDS pp pp pp
0.0000000000000000e+00 1.2464485979498011e+01
0.0000000000000000e+00 1.2464485979498011e+01
0.0000000000000000e+00 1.2443717891802279e+01
ITEM: ATOMS id type xs ys zs
1 1 0.546475 0.675366 0.639063
2 2 0.482776 0.712527 0.60185
3 2 0.513377 0.662748 0.714409
4 1 0.824604 0.255819 0.46482
5 2 0.827807 0.21443 0.393713
6 2 0.897857 0.276656 0.48359
7 1 0.287341 0.0410534 0.222382
8 2 0.284415 0.105184 0.275255
9 2 0.331417 0.0624522 0.159235
10 1 0.681378 0.195407 0.935073
11 2 0.730279 0.228527 0.987054
12 2 0.664499 0.118529 0.962237
13 1 0.193981 0.903155 0.905654
14 2 0.211191 0.890162 0.829475
15 2 0.195924 0.977991 0.914892
16 1 0.16436 0.598059 0.903157
17 2 0.174117 0.522871 0.923001
18 2 0.098255 0.60039 0.855354
19 1 0.705882 0.747645 0.384037
20 2 0.650792 0.805457 0.395167
21 2 0.761246 0.777367 0.331417
22 1 0.756586 0.785638 0.16933
23 2 0.68152 0.785649 0.196521
24 2 0.764766 0.729969 0.110847
25 1 0.553184 0.805098 0.207042
26 2 0.514043 0.738511 0.232071
27 2 0.503905 0.863814 0.222862
28 1 0.315145 0.635401 0.738691
29 2 0.264238 0.60924 0.796073
30 2 0.304708 0.586369 0.675952
31 1 0.262495 0.895347 0.384829
32 2 0.211486 0.849646 0.34634
33 2 0.293551 0.943975 0.329076
34 1 0.514528 0.17706 0.763089
35 2 0.569341 0.133833 0.722141
36 2 0.529798 0.157542 0.839308
37 1 0.479911 0.171824 0.397945
38 2 0.434091 0.211192 0.34833
39 2 0.44615 0.171591 0.473068
40 1 0.529144 0.498648 0.960527
41 2 0.507577 0.570358 0.932224
42 2 0.587169 0.471697 0.913268
43 1 0.00573869 0.124667 0.747031
44 2 0.943485 0.0746637 0.738859
45 2 0.0601674 0.0972965 0.697246
46 1 0.0396188 0.635472 0.356593
47 2 0.996995 0.573105 0.323377
48 2 0.0063593 0.643215 0.428569
49 1 0.983155 0.886904 0.554409
50 2 0.0251646 0.819349 0.557173
51 2 0.923105 0.869887 0.501408
52 1 0.282684 0.247192 0.316443
53 2 0.261804 0.308332 0.267805
54 2 0.259916 0.269537 0.391618
55 1 0.283024 0.847246 0.694416
56 2 0.355082 0.867707 0.675454
57 2 0.280597 0.767183 0.704778
58 1 0.509778 0.981956 0.319186
59 2 0.494469 0.938847 0.3858
60 2 0.507246 0.0556191 0.345657
61 1 0.643638 0.379801 0.809835
62 2 0.597121 0.356257 0.747971
63 2 0.655237 0.311491 0.852494
64 1 0.216298 0.243907 0.538223
65 2 0.158425 0.298668 0.552946
66 2 0.185998 0.171602 0.543489
67 1 0.709889 0.00579269 0.236728
68 2 0.636148 0.0165595 0.259952
69 2 0.716738 0.925765 0.229098
70 1 0.991664 0.59756 0.763794
71 2 0.940406 0.645382 0.8003
72 2 0.943612 0.539895 0.736579
73 1 0.608109 0.0200841 0.024704
74 2 0.658162 0.989173 0.0792971
75 2 0.551821 0.058841 0.0616341
76 1 0.891651 0.622232 0.052963
77 2 0.94222 0.681527 0.0740876
78 2 0.858896 0.645108 0.982599
79 1 0.0942985 0.812625 0.248314
80 2 0.0694049 0.744627 0.279508
81 2 0.0983332 0.790286 0.170273
82 1 0.385141 0.116731 0.610269
83 2 0.328199 0.176135 0.596555
84 2 0.436071 0.135053 0.671063
85 1 0.97799 0.314568 0.612023
86 2 0.972478 0.260135 0.673856
87 2 0.917183 0.368236 0.625316
88 1 0.466403 0.894253 0.902985
89 2 0.51602 0.938261 0.949226
90 2 0.400922 0.890944 0.946133
91 1 0.189004 0.39325 0.178287
92 2 0.107735 0.38684 0.175698
93 2 0.215902 0.383494 0.102056
94 1 0.779496 0.459476 0.483467
95 2 0.791986 0.378463 0.485271
96 2 0.805661 0.482747 0.410454
97 1 0.696661 0.120915 0.614048
98 2 0.760192 0.0914226 0.657014
99 2 0.722332 0.169918 0.557708
100 1 0.00281768 0.220649 0.93954
101 2 0.983019 0.297199 0.936324
102 2 0.994061 0.193645 0.864449
103 1 0.160522 0.420614 0.71474
104 2 0.132525 0.426048 0.78849
105 2 0.0961574 0.39281 0.670368
106 1 0.333166 0.538145 0.524096
107 2 0.396047 0.48888 0.526077
108 2 0.298858 0.534676 0.450499
109 1 0.445956 0.792266 0.470556
110 2 0.372745 0.824985 0.457405
111 2 0.484552 0.838627 0.522656
112 1 0.278949 0.431171 0.974437
113 2 0.312198 0.388775 0.913029
114 2 0.337198 0.480842 0.00298001
115 1 0.86515 0.147273 0.286967
116 2 0.805275 0.0996374 0.261972
117 2 0.934921 0.109428 0.270349
118 1 0.256312 0.557724 0.31397
119 2 0.243819 0.495209 0.263241
120 2 0.18673 0.591994 0.332122
121 1 0.0379322 0.0309113 0.222799
122 2 0.0623706 0.960436 0.247027
123 2 0.0973238 0.0729148 0.195553