ITEM: TIMESTEP
0
ITEM: NUMBER OF ATOMS
192
ITEM: BOX BOUNDS pp pp pp
0.0000000000000000e+00 1.2464485979498011e+01
0.0000000000000000e+00 1.2464485979498011e+01
0.0000000000000000e+00 1.2443717891802279e+01
ITEM: ATOMS id type xs ys zs
1 1 0.546014 0.669899 0.614914
2 2 0.49898 0.72961 0.589257
3 2 0.539862 0.66333 0.69475
4 1 0.874925 0.256643 0.389014
5 2 0.906559 0.23284 0.319138
6 2 0.933118 0.263571 0.443871
7 1 0.117622 0.193107 0.327127
8 2 0.140488 0.15907 0.396179
9 2 0.17946 0.194211 0.275968
10 1 0.753673 0.181533 0.835444
11 2 0.827561 0.16206 0.811011
12 2 0.728905 0.128717 0.890587
13 1 0.202728 0.962059 0.0367503
14 2 0.241482 0.948819 0.967668
15 2 0.230695 0.0291429 0.0707375
16 1 0.109289 0.598524 0.85978
17 2 0.144287 0.530888 0.885007
18 2 0.0308499 0.585647 0.849034
19 1 0.759395 0.911029 0.414645
20 2 0.681188 0.92192 0.400523
21 2 0.790445 0.86362 0.357789
22 1 0.769429 0.769191 0.243024
23 2 0.72292 0.704313 0.250873
24 2 0.821555 0.757647 0.183064
25 1 0.444313 0.788301 0.164422
26 2 0.421474 0.71886 0.197491
27 2 0.484551 0.831691 0.21866
28 1 0.288889 0.686017 0.777776
29 2 0.225285 0.647724 0.808189
30 2 0.286561 0.68238 0.697549
31 1 0.314196 0.965588 0.344939
32 2 0.270072 0.903773 0.319097
33 2 0.33348 0.0124603 0.282668
34 1 0.635732 0.184052 0.648033
35 2 0.668589 0.129339 0.599367
36 2 0.676982 0.186988 0.716876
37 1 0.537674 0.19201 0.377948
38 2 0.49409 0.233806 0.43083
39 2 0.614713 0.19285 0.400301
40 1 0.457616 0.506756 0.9377
41 2 0.495485 0.572325 0.911192
42 2 0.497249 0.441374 0.913407
43 1 0.952387 0.0884309 0.732955
44 2 0.910849 0.0312459 0.694969
45 2 0.030795 0.0722735 0.727975
46 1 0.0485783 0.624078 0.381469
47 2 0.0181417 0.693417 0.354979
48 2 0.0265852 0.612589 0.457872
49 1 0.025454 0.848121 0.638114
50 2 0.993248 0.77466 0.638192
51 2 0.0224704 0.878542 0.563833
52 1 0.36114 0.269713 0.513152
53 2 0.354139 0.349431 0.507703
54 2 0.290861 0.235422 0.495273
55 1 0.305458 0.890332 0.853652
56 2 0.378194 0.895809 0.887071
57 2 0.293193 0.815177 0.828412
58 1 0.546402 0.989107 0.332764
59 2 0.473482 0.959668 0.34859
60 2 0.552813 0.0627624 0.36392
61 1 0.600597 0.340502 0.916125
62 2 0.586632 0.271521 0.877587
63 2 0.649035 0.326936 0.978707
64 1 0.148684 0.173713 0.537459
65 2 0.0807672 0.2132 0.553663
66 2 0.167925 0.126982 0.59985
67 1 0.715622 0.975209 0.173938
68 2 0.654301 0.985871 0.224616
69 2 0.743552 0.900368 0.18119
70 1 0.89676 0.554589 0.815909
71 2 0.833955 0.596896 0.842399
72 2 0.914807 0.497398 0.869264
73 1 0.635101 0.0740841 0.0083138
74 2 0.670689 0.0374758 0.0702798
75 2 0.595369 0.138583 0.0347187
76 1 0.926716 0.720373 0.0842705
77 2 0.00688122 0.720705 0.0869231
78 2 0.90246 0.726206 0.00791144
79 1 0.208289 0.79172 0.247812
80 2 0.215846 0.719377 0.281679
81 2 0.201546 0.783502 0.168177
82 1 0.428824 0.131658 0.650991
83 2 0.404376 0.183382 0.594678
84 2 0.502323 0.151977 0.675906
85 1 0.967399 0.256527 0.581098
86 2 0.941184 0.189854 0.617231
87 2 0.923997 0.319221 0.606028
88 1 0.496231 0.885024 0.956409
89 2 0.544303 0.947229 0.972352
90 2 0.476528 0.848248 0.0250279
91 1 0.228721 0.466708 0.15258
92 2 0.152707 0.491004 0.16067
93 2 0.246708 0.460628 0.0745195
94 1 0.759604 0.443809 0.440245
95 2 0.794061 0.372406 0.428058
96 2 0.784907 0.474159 0.510163
97 1 0.728322 0.113385 0.450506
98 2 0.756453 0.0384357 0.455501
99 2 0.786813 0.162293 0.425554
100 1 0.989684 0.167343 0.934304
101 2 0.965324 0.242619 0.94751
102 2 0.971442 0.146117 0.85901
103 1 0.153213 0.400658 0.657229
104 2 0.199886 0.440959 0.605849
105 2 0.0787567 0.396145 0.627691
106 1 0.318643 0.483328 0.51077
107 2 0.397779 0.489821 0.522145
108 2 0.299329 0.513773 0.439001
109 1 0.438157 0.805791 0.475774
110 2 0.380139 0.847283 0.439024
111 2 0.489337 0.856652 0.510868
112 1 0.245658 0.44782 0.934645
113 2 0.240582 0.369679 0.917239
114 2 0.322725 0.470031 0.935661
115 1 0.882145 0.137791 0.173993
116 2 0.825971 0.0811141 0.182119
117 2 0.953715 0.103171 0.163348
118 1 0.249687 0.586235 0.325438
119 2 0.246987 0.5423 0.258274
120 2 0.175277 0.596925 0.353459
121 1 0.0592002 0.00585693 0.214002
122 2 0.113949 0.957534 0.180763
123 2 0.0961286 0.0668987 0.250722
124 1 0.777043 0.915567 0.897689
125 2 0.841246 0.929379 0.943818
126 2 0.712322 0.948905 0.931412
127 1 0.58184 0.448616 0.130528
128 2 0.61091 0.499239 0.185628
129 2 0.537664 0.489354 0.0773111
130 1 0.465176 0.644517 0.322415
131 2 0.394576 0.606811 0.317155
132 2 0.458281 0.707441 0.371758
133 1 0.78413 0.379839 0.689166
134 2 0.719302 0.334442 0.676099
135 2 0.806951 0.372493 0.765837
136 1 0.53691 0.484763 0.505374
137 2 0.565392 0.548579 0.54481
138 2 0.596971 0.448112 0.466799
139 1 0.731154 0.707015 0.871538
140 2 0.659385 0.700013 0.836353
141 2 0.7437 0.783634 0.891714
142 1 0.745807 0.282234 0.0748704
143 2 0.700336 0.280227 0.141026
144 2 0.808875 0.233589 0.0843602
145 1 0.292664 0.178247 0.199335
146 2 0.252256 0.203793 0.13482
147 2 0.367468 0.207113 0.197144
148 1 0.267621 0.254832 0.780571
149 2 0.21813 0.302753 0.739418
150 2 0.305088 0.205278 0.729749
151 1 0.971629 0.479663 0.116546
152 2 0.949811 0.458497 0.190897
153 2 0.945626 0.553974 0.101177
154 1 0.550321 0.959574 0.600064
155 2 0.504082 0.0210223 0.622901
156 2 0.615807 0.9568 0.646375
157 1 0.744816 0.69487 0.543784
158 2 0.756379 0.751249 0.487821
159 2 0.66613 0.684107 0.555038
160 1 0.536881 0.218072 0.161082
161 2 0.537845 0.29453 0.136816
162 2 0.528936 0.2154 0.240986
163 1 0.148293 0.742146 0.0357619
164 2 0.178324 0.816242 0.0293042
165 2 0.155922 0.704009 0.965495
166 1 0.672326 0.569442 0.300901
167 2 0.598435 0.580701 0.330053
168 2 0.709421 0.512455 0.343517
169 1 0.786457 0.919464 0.675621
170 2 0.776293 0.845176 0.647086
171 2 0.79374 0.91672 0.755586
172 1 0.513517 0.712015 0.821414
173 2 0.51686 0.769548 0.877296
174 2 0.436926 0.692656 0.807506
175 1 0.00338005 0.930048 0.438368
176 2 0.0317215 0.951292 0.366281
177 2 0.923698 0.939168 0.439479
178 1 0.962117 0.952717 0.994852
179 2 0.957501 0.0298884 0.97344
180 2 0.0372912 0.935542 0.0169695
181 1 0.886526 0.369257 0.942452
182 2 0.916131 0.397826 0.0114213
183 2 0.81211 0.341921 0.954666
184 1 0.929283 0.611897 0.609124
185 2 0.924179 0.588439 0.685785
186 2 0.857113 0.635899 0.583606
187 1 0.189592 0.00741323 0.705814
188 2 0.252708 0.993514 0.753399
189 2 0.142339 0.942613 0.704492
190 1 0.223431 0.194923 0.989452
191 2 0.257581 0.21903 0.920882
192 2 0.146194 0.177806 0.976197
ITEM: TIMESTEP
100
ITEM: NUMBER OF ATOMS
192
ITEM: BOX BOUNDS pp pp pp
0.0000000000000000e+00 1.2464485979498011e+01
0.0000000000000000e+00 1.2464485979498011e+01
0.0000000000000000e+00 1.2443717891802279e+01
ITEM: ATOMS id type xs ys zs
1 1 0.552161 0.642837 0.609325
2 2 0.389986 0.848152 0.421067
3 2 0.666677 0.692994 0.856963
4 1 0.868817 0.260261 0.401935
5 2 0.931078 0.0997835 0.11428
6 2 0.160191 0.0576658 0.512071
7 1 0.104962 0.224017 0.334595
8 2 0.966418 0.190719 0.555066
9 2 0.293756 0.0720416 0.179146
10 1 0.739926 0.194168 0.860334
11 2 0.955229 0.0241108 0.759462
12 2 0.816559 0.0751879 0.18006
13 1 0.214202 0.929645 0.0451419
14 2 0.258909 0.207966 0.920252
15 2 0.239713 0.201652 0.916479
16 1 0.0763377 0.583008 0.817255
17 2 0.253801 0.402065 0.874983
18 2 0.965045 0.582823 0.715099
19 1 0.745314 0.910184 0.464008
20 2 0.687891 0.826933 0.284772
21 2 0.670099 0.82758 0.27311
22 1 0.736812 0.812715 0.237641
23 2 0.608786 0.561252 0.265281
24 2 0.954217 0.769195 0.084219
25 1 0.429332 0.787545 0.121582
26 2 0.545289 0.595382 0.277274
27 2 0.555496 0.593333 0.289377
28 1 0.322769 0.702663 0.756679
29 2 0.979247 0.568659 0.767268
30 2 0.251125 0.56861 0.286101
31 1 0.336228 0.994916 0.384182
32 2 0.105188 0.827543 0.317616
33 2 0.269008 0.187655 0.209166
34 1 0.613102 0.211192 0.692485
35 2 0.674513 0.946312 0.547665
36 2 0.668172 0.226954 0.900519
37 1 0.523971 0.187692 0.391184
38 2 0.368205 0.37083 0.494116
39 2 0.07547 0.270035 0.383989
40 1 0.430935 0.543191 0.950469
41 2 0.553084 0.686297 0.910301
42 2 0.654339 0.244033 0.913272
43 1 0.948472 0.101935 0.751649
44 2 0.69119 0.943212 0.526478
45 2 0.286974 0.0571265 0.685253
46 1 0.0499764 0.624871 0.370375
47 2 0.76855 0.935131 0.194025
48 2 0.822595 0.45624 0.508413
49 1 0.0335016 0.845502 0.704794
50 2 0.94777 0.565148 0.710488
51 2 0.0461288 0.924162 0.350987
52 1 0.384216 0.287085 0.496204
53 2 0.207626 0.480503 0.568286
54 2 0.16064 0.173907 0.448787
55 1 0.30919 0.927734 0.818686
56 2 0.529483 0.960265 0.997742
57 2 0.25181 0.674974 0.737249
58 1 0.559843 0.941291 0.308012
59 2 0.322435 0.0520327 0.334394
60 2 0.652997 0.120429 0.443536
61 1 0.593358 0.311766 0.893727
62 2 0.652684 0.181913 0.784599
63 2 0.546395 0.394943 0.158894
64 1 0.192769 0.145749 0.53189
65 2 0.0425603 0.352137 0.628431
66 2 0.265694 0.0300321 0.701547
67 1 0.769646 0.00989664 0.17322
68 2 0.485636 0.970682 0.300283
69 2 0.483248 0.965386 0.305434
70 1 0.908744 0.547877 0.801377
71 2 0.644711 0.698352 0.883209
72 2 0.921842 0.371813 0.981299
73 1 0.610522 0.107451 0.981418
74 2 0.967497 0.113378 0.133115
75 2 0.699223 0.325162 0.0767007
76 1 0.907596 0.71191 0.120275
77 2 0.191931 0.854472 0.0160352
78 2 0.665921 0.644071 0.814743
79 1 0.157452 0.818427 0.255072
80 2 0.122575 0.645473 0.375826
81 2 0.221365 0.834486 0.0328016
82 1 0.358384 0.0728623 0.664265
83 2 0.468468 0.235448 0.439197
84 2 0.619315 0.435319 0.498426
85 1 0.963807 0.267545 0.576172
86 2 0.708212 0.145092 0.573089
87 2 0.78098 0.381663 0.604486
88 1 0.519549 0.898602 0.950118
89 2 0.643576 0.164072 0.934099
90 2 0.460772 0.726989 0.164613
91 1 0.267998 0.455645 0.165618
92 2 0.943269 0.40399 0.0605511
93 2 0.167146 0.345786 0.937075
94 1 0.775055 0.44743 0.440192
95 2 0.921066 0.266165 0.460146
96 2 0.985195 0.598791 0.813987
97 1 0.713117 0.119578 0.495102
98 2 0.69396 0.975179 0.62405
99 2 0.92442 0.0697037 0.17335
100 1 0.0112436 0.159655 0.943896
101 2 0.924811 0.373761 0.976233
102 2 0.268081 0.0118469 0.719815
103 1 0.0831218 0.410954 0.664426
104 2 0.332051 0.499593 0.607963
105 2 0.883099 0.281294 0.476886
106 1 0.279881 0.507257 0.540675
107 2 0.563347 0.566231 0.588468
108 2 0.286324 0.690892 0.337627
109 1 0.406417 0.798838 0.478427
110 2 0.220641 0.100912 0.610395
111 2 0.735815 0.913361 0.545691
112 1 0.211023 0.410854 0.943705
113 2 0.330955 0.252525 0.784614
114 2 0.478008 0.500039 0.00291747
115 1 0.921254 0.142867 0.180357
116 2 0.71088 0.0510204 0.129535
117 2 0.103844 0.863639 0.228225
118 1 0.261218 0.61567 0.355641
119 2 0.345972 0.465955 0.170938
120 2 0.0750099 0.691172 0.389847
121 1 0.0333672 0.958492 0.203331
122 2 0.267163 0.769095 0.043681
123 2 0.0422012 0.178959 0.321577
124 1 0.756392 0.924557 0.866563
125 2 0.0149655 0.950205 0.0366746
126 2 0.495957 0.845375 0.0164608
127 1 0.570549 0.460305 0.134103
128 2 0.658538 0.527706 0.250665
129 2 0.368183 0.530553 0.989759
130 1 0.488477 0.635382 0.319647
131 2 0.178128 0.628986 0.359992
132 2 0.331465 0.782878 0.503349
133 1 0.772214 0.389611 0.680012
134 2 0.589527 0.272007 0.741072
135 2 0.96303 0.574269 0.708426
136 1 0.545575 0.449679 0.518483
137 2 0.62982 0.673216 0.580403
138 2 0.715196 0.528862 0.366404
139 1 0.726329 0.667415 0.881548
140 2 0.610939 0.700238 0.856525
141 2 0.822182 0.945126 0.912995
142 1 0.759075 0.272109 0.0657886
143 2 0.463049 0.186493 0.168324
144 2 0.996788 0.0770996 0.970318
145 1 0.325785 0.13637 0.215744
146 2 0.251183 0.411993 0.0319389
147 2 0.576829 0.180721 0.102645
148 1 0.264543 0.237467 0.820496
149 2 0.149701 0.37316 0.691751
150 2 0.528443 0.226048 0.325545
151 1 0.975537 0.443711 0.115095
152 2 0.850587 0.749755 0.163486
153 2 0.84346 0.738619 0.159316
154 1 0.596222 0.956844 0.554457
155 2 0.549457 0.182696 0.651454
156 2 0.874162 0.109167 0.723106
157 1 0.757263 0.713451 0.538607
158 2 0.693351 0.942634 0.509911
159 2 0.494972 0.665487 0.564187
160 1 0.54242 0.207171 0.16846
161 2 0.650966 0.237493 0.902522
162 2 0.458419 0.28126 0.465586
163 1 0.173969 0.777025 0.0167154
164 2 0.270747 0.982965 0.777055
165 2 0.997959 0.502325 0.81564
166 1 0.696455 0.583502 0.294949
167 2 0.509276 0.384832 0.481909
168 2 0.821459 0.373768 0.431849
169 1 0.765523 0.938744 0.631216
170 2 0.817533 0.695545 0.583897
171 2 0.696704 0.946926 0.922501
172 1 0.54153 0.685742 0.831505
173 2 0.328388 0.761324 0.807813
174 2 0.333283 0.761794 0.806452
175 1 0.011928 0.932135 0.419183
176 2 0.218428 0.833596 0.0288186
177 2 0.694531 0.946868 0.535625
178 1 0.951667 0.959824 0.996552
179 2 0.201325 0.110383 0.0139233
180 2 0.0677096 0.91485 0.259884
181 1 0.906966 0.382155 0.904
182 2 0.0230499 0.390301 0.13719
183 2 0.663302 0.203271 0.912718
184 1 0.950898 0.597272 0.630911
185 2 0.968664 0.567812 0.760421
186 2 0.767259 0.66593 0.48122
187 1 0.190346 0.0172197 0.695171
188 2 0.275894 0.996526 0.782907
189 2 0.953862 0.837418 0.714227
190 1 0.241677 0.179444 0.00524106
191 2 0.262568 0.0202983 0.715338
192 2 0.997692 0.14909 0.867662
ITEM: TIMESTEP
200
ITEM: NUMBER OF ATOMS
192
ITEM: BOX BOUNDS pp pp pp
0.0000000000000000e+00 1.2464485979498011e+01
0.0000000000000000e+00 1.2464485979498011e+01
0.0000000000000000e+00 1.2443717891802279e+01
ITEM: ATOMS id type xs ys zs
1 1 0.55658 0.646071 0.599176
2 2 0.389799 0.858457 0.453341
3 2 0.689933 0.749623 0.931462
4 1 0.869542 0.266161 0.399213
5 2 0.930967 0.0579582 0.0897598
6 2 0.182245 0.0828263 0.469004
7 1 0.113045 0.223083 0.339984
8 2 1.00106 0.214168 0.567395
9 2 0.299271 0.138063 0.144261
10 1 0.728838 0.201608 0.856964
11 2 0.965906 0.0188689 0.736339
12 2 0.822879 0.0387531 0.149488
13 1 0.230957 0.936324 0.0363497
14 2 0.251755 0.197825 0.910556
15 2 0.251478 0.197808 0.910647
16 1 0.0710768 0.597548 0.790054
17 2 0.269218 0.437895 0.923673
18 2 0.969169 0.569896 0.731121
19 1 0.730692 0.913454 0.463365
20 2 0.652045 0.852741 0.264507
21 2 0.651857 0.852787 0.264324
22 1 0.721677 0.822233 0.242078
23 2 0.590371 0.586077 0.290607
24 2 0.919106 0.776144 0.0706138
25 1 0.425845 0.798099 0.0994679
26 2 0.589731 0.585103 0.301165
27 2 0.605946 0.596137 0.299777
28 1 0.332066 0.729167 0.767374
29 2 0.776512 0.356617 0.0625912
30 2 0.178168 0.606566 0.344302
31 1 0.38818 0.977727 0.370276
32 2 0.0851416 0.827507 0.222139
33 2 0.28024 0.190912 0.255291
34 1 0.606384 0.202386 0.68688
35 2 0.700645 0.933114 0.558873
36 2 0.651067 0.203887 0.905723
37 1 0.527399 0.20878 0.40523
38 2 0.464537 0.318369 0.494457
39 2 0.0715608 0.28578 0.364534
40 1 0.436525 0.53935 0.962244
41 2 0.483445 0.508389 0.685813
42 2 0.808157 0.238933 0.109393
43 1 0.954163 0.093325 0.759127
44 2 0.0938388 0.831078 0.608468
45 2 0.485734 0.838156 0.638441
46 1 0.091444 0.623668 0.367219
47 2 0.752948 0.931044 0.198608
48 2 0.782913 0.410075 0.553877
49 1 0.0328006 0.861157 0.711464
50 2 0.870201 0.432753 0.915831
51 2 0.0571357 0.923146 0.303953
52 1 0.392286 0.298374 0.492896
53 2 0.215212 0.464897 0.575071
54 2 0.166937 0.198792 0.475078
55 1 0.318738 0.898412 0.805842
56 2 0.530953 0.954061 0.993793
57 2 0.260485 0.690558 0.757267
58 1 0.547344 0.937905 0.32292
59 2 0.354443 0.033535 0.314895
60 2 0.669391 0.147296 0.441296
61 1 0.609005 0.301685 0.911546
62 2 0.658189 0.203037 0.906558
63 2 0.523528 0.410915 0.144834
64 1 0.195091 0.139001 0.521381
65 2 0.0373303 0.349579 0.630623
66 2 0.247117 0.917079 0.835184
67 1 0.752612 0.0136895 0.171777
68 2 0.461993 0.950421 0.335913
69 2 0.462132 0.950717 0.335944
70 1 0.897816 0.548327 0.782485
71 2 0.618559 0.68106 0.871959
72 2 0.218887 0.376763 0.112072
73 1 0.611674 0.133572 0.957559
74 2 0.936249 0.0568503 0.0788851
75 2 0.611292 0.278082 0.133231
76 1 0.890581 0.721042 0.124591
77 2 0.215303 0.848525 0.0291418
78 2 0.610464 0.689225 0.854372
79 1 0.138303 0.806486 0.276425
80 2 0.174799 0.621233 0.371055
81 2 0.220596 0.860327 0.0278715
82 1 0.332347 0.0754418 0.670333
83 2 0.481058 0.332107 0.474641
84 2 0.55639 0.359415 0.497943
85 1 0.959655 0.278068 0.576499
86 2 0.773575 0.167002 0.498604
87 2 0.796629 0.409342 0.54406
88 1 0.525141 0.885872 0.959195
89 2 0.646662 0.231551 0.909253
90 2 0.46079 0.728931 0.0916633
91 1 0.270137 0.466948 0.161574
92 2 0.936208 0.423813 0.0184192
93 2 0.142913 0.401767 0.917462
94 1 0.781759 0.44335 0.469196
95 2 0.913012 0.261635 0.475039
96 2 0.984512 0.583486 0.765945
97 1 0.708852 0.121608 0.503735
98 2 0.481592 0.961294 0.294589
99 2 0.037255 0.0993948 0.894972
100 1 0.0237172 0.15183 0.950439
101 2 0.723199 0.262368 -0.00458815
102 2 0.239639 0.0501561 0.659851
103 1 0.0891023 0.410152 0.652319
104 2 0.299311 0.540344 0.606382
105 2 0.787782 0.397775 0.547558
106 1 0.275432 0.505406 0.540477
107 2 0.562645 0.579056 0.557116
108 2 0.168598 0.610192 0.35466
109 1 0.409468 0.790924 0.485105
110 2 0.244392 0.0355984 0.674101
111 2 0.699436 0.929005 0.560049
112 1 0.20475 0.417659 0.962778
113 2 0.330907 0.269476 0.818184
114 2 0.487868 0.516507 0.0199381
115 1 0.929151 0.118344 0.139449
116 2 0.711824 0.0163946 0.101833
117 2 0.0513875 0.914519 0.30291
118 1 0.258066 0.607033 0.34536
119 2 0.347283 0.45649 0.150486
120 2 0.037183 0.905871 0.293177
121 1 0.0428667 0.951749 0.223993
122 2 0.235161 0.849812 0.00223637
123 2 0.0540945 0.171811 0.335979
124 1 0.747765 0.922851 0.86142
125 2 0.922561 0.0500087 0.0886282
126 2 0.475752 0.840017 0.0296388
127 1 0.571638 0.470103 0.144516
128 2 0.577564 0.575382 0.295728
129 2 0.374337 0.561167 0.00433833
130 1 0.510777 0.608062 0.309826
131 2 0.174939 0.611709 0.366372
132 2 0.343768 0.764316 0.517882
133 1 0.779372 0.393888 0.63081
134 2 0.569018 0.270249 0.689155
135 2 0.989378 0.589848 0.708484
136 1 0.536757 0.432828 0.505225
137 2 0.656132 0.685814 0.584886
138 2 0.593756 0.586891 0.287559
139 1 0.710172 0.671213 0.890303
140 2 0.627191 0.668233 0.860789
141 2 0.807353 0.90634 0.909041
142 1 0.74713 0.280688 0.0754592
143 2 0.45493 0.210013 0.185349
144 2 0.935896 0.059107 0.0793413
145 1 0.331117 0.14381 0.217006
146 2 0.258808 0.454316 0.0816133
147 2 0.553104 0.139832 0.148925
148 1 0.264149 0.226933 0.829604
149 2 0.0915527 0.419353 0.729802
150 2 0.522286 0.260109 0.346063
151 1 0.982863 0.439924 0.106506
152 2 0.825629 0.744931 0.163359
153 2 0.825575 0.745002 0.163155
154 1 0.610208 0.942618 0.5685
155 2 0.580948 0.16943 0.62056
156 2 0.903808 0.123402 0.707415
157 1 0.74284 0.708756 0.553153
158 2 0.708823 0.930732 0.562336
159 2 0.504348 0.693567 0.560358
160 1 0.535732 0.211799 0.176974
161 2 0.65088 0.196886 0.909521
162 2 0.47807 0.266523 0.384363
163 1 0.183292 0.770055 0.0225472
164 2 0.255229 0.0406641 0.711072
165 2 0.973436 0.585679 0.741257
166 1 0.675118 0.571135 0.292853
167 2 0.458318 0.283954 0.470597
168 2 0.841556 0.322048 0.459255
169 1 0.755663 0.941187 0.630504
170 2 0.78932 0.721324 0.617532
171 2 0.684736 0.895953 0.90209
172 1 0.53446 0.690002 0.827644
173 2 0.326346 0.812714 0.787933
174 2 0.326316 0.812785 0.787821
175 1 0.0354434 0.919439 0.386144
176 2 0.21935 0.852502 0.0360686
177 2 0.695655 0.929351 0.544007
178 1 0.939428 0.986315 0.0389595
179 2 0.147036 0.170789 0.992741
180 2 0.0536302 0.926446 0.307397
181 1 0.915062 0.394252 0.939226
182 2 0.0295166 0.386377 0.0757471
183 2 0.676477 0.178684 0.903241
184 1 0.963629 0.603151 0.642601
185 2 0.0772701 0.793721 0.321424
186 2 0.770543 0.642063 0.520281
187 1 0.176536 0.0125499 0.694447
188 2 0.24579 0.0345416 0.669181
189 2 0.032821 0.785409 0.73307
190 1 0.232758 0.163907 0.987468
191 2 0.259441 0.0418714 0.669362
192 2 0.987049 0.207543 0.905954
ITEM: TIMESTEP
300
ITEM: NUMBER OF ATOMS
192
ITEM: BOX BOUNDS pp pp pp
0.0000000000000000e+00 1.2464485979498011e+01
0.0000000000000000e+00 1.2464485979498011e+01
0.0000000000000000e+00 1.2443717891802279e+01
ITEM: ATOMS id type xs ys zs
1 1 0.544744 0.643998 0.598818
2 2 0.423946 0.859787 0.498078
3 2 0.710866 0.810778 0.936324
4 1 0.869224 0.264148 0.415675
5 2 0.939365 0.0472399 0.0947512
6 2 0.188193 0.0721745 0.477282
7 1 0.115823 0.222472 0.337431
8 2 0.874721 0.284677 0.491648
9 2 0.298975 0.139087 0.149824
10 1 0.732239 0.196856 0.862783
11 2 0.943605 0.0194068 0.73833
12 2 0.81653 0.035346 0.142285
13 1 0.23587 0.934811 0.0312545
14 2 0.247997 0.193248 0.911214
15 2 0.247997 0.193248 0.911214
16 1 0.0696912 0.596326 0.780632
17 2 0.247735 0.462111 0.920728
18 2 0.969495 0.57504 0.727165
19 1 0.736175 0.908826 0.467028
20 2 0.668592 0.839545 0.298885
21 2 0.668591 0.839545 0.298884
22 1 0.721517 0.822839 0.242839
23 2 0.580988 0.590218 0.290322
24 2 0.89033 0.770544 0.0638661
25 1 0.428972 0.794882 0.0963534
26 2 0.588251 0.581786 0.292256
27 2 0.793708 0.401533 0.527618
28 1 0.337507 0.726886 0.767766
29 2 0.846429 0.350795 0.99076
30 2 0.175276 0.604738 0.366128
31 1 0.388137 0.984347 0.364414
32 2 0.0784808 0.858349 0.274888
33 2 0.281686 0.187119 0.26407
34 1 0.597403 0.201682 0.689889
35 2 0.738824 0.930334 0.552861
36 2 0.72658 0.0190142 0.862894
37 1 0.539842 0.224793 0.400597
38 2 0.471381 0.33213 0.466301
39 2 0.10811 0.299315 0.323311
40 1 0.434721 0.535958 0.971607
41 2 0.528371 0.649493 0.681703
42 2 0.779542 0.219414 0.0748174
43 1 0.958046 0.0917773 0.765749
44 2 0.110344 0.823309 0.703618
45 2 0.739142 0.931064 0.544942
46 1 0.0925951 0.611232 0.372832
47 2 0.733289 0.936295 0.203825
48 2 0.79251 0.399059 0.533225
49 1 0.0436528 0.862779 0.710118
50 2 0.904894 0.444791 0.910015
51 2 0.073967 0.899141 0.313586
52 1 0.391469 0.315962 0.494509
53 2 0.217236 0.464192 0.578812
54 2 0.166897 0.189383 0.46307
55 1 0.318478 0.894309 0.804643
56 2 0.520606 0.954917 0.966676
57 2 0.268013 0.686079 0.758947
58 1 0.544609 0.935774 0.307532
59 2 0.355818 0.0455185 0.318072
60 2 0.64086 0.139415 0.462122
61 1 0.610424 0.300451 0.918542
62 2 0.666702 0.217985 0.907125
63 2 0.49297 0.43333 0.163083
64 1 0.196472 0.138542 0.517817
65 2 0.0229784 0.392328 0.644175
66 2 0.271341 0.912245 0.86685
67 1 0.741084 0.0151113 0.166948
68 2 0.468337 0.962766 0.34108
69 2 0.468328 0.962739 0.341086
70 1 0.905363 0.542897 0.779494
71 2 0.602339 0.697012 0.867203
72 2 0.230453 0.455029 0.0665388
73 1 0.605114 0.138881 0.949846
74 2 0.925475 0.0661136 0.0669582
75 2 0.553806 0.291237 0.151287
76 1 0.879296 0.723886 0.129652
77 2 0.216715 0.852314 0.0329744
78 2 0.634234 0.663591 0.846998
79 1 0.136133 0.80525 0.272249
80 2 0.172946 0.604514 0.341916
81 2 0.226047 0.854211 0.0350546
82 1 0.32881 0.0757764 0.675228
83 2 0.466512 0.339794 0.480298
84 2 0.475828 0.333828 0.480189
85 1 0.948495 0.278061 0.568866
86 2 0.753729 0.191499 0.476295
87 2 0.787581 0.457442 0.647117
88 1 0.535248 0.880179 0.956681
89 2 0.646983 0.212564 0.911873
90 2 0.439386 0.724908 0.0646165
91 1 0.272659 0.465653 0.157301
92 2 0.959583 0.411443 0.038301
93 2 0.128071 0.430101 0.956977
94 1 0.79163 0.437212 0.454157
95 2 0.00573749 0.272233 0.523128
96 2 0.976931 0.578395 0.728654
97 1 0.706582 0.134306 0.50613
98 2 0.535416 0.923973 0.227821
99 2 0.00712258 0.134104 0.866688
100 1 0.0269285 0.162711 0.94622
101 2 0.694704 0.288346 0.0132951
102 2 0.252845 0.0322999 0.685738
103 1 0.0930686 0.422752 0.660755
104 2 0.29057 0.55424 0.600308
105 2 0.869276 0.272787 0.490065
106 1 0.276926 0.503248 0.542164
107 2 0.537524 0.572114 0.565953
108 2 0.173976 0.609007 0.351141
109 1 0.411716 0.78082 0.493813
110 2 0.256134 0.0485393 0.70758
111 2 0.742444 0.928491 0.55007
112 1 0.205748 0.417141 0.970583
113 2 0.30177 0.292825 0.827027
114 2 0.486065 0.511815 0.0309941
115 1 0.923879 0.116354 0.13911
116 2 0.700025 0.0120944 0.09802
117 2 0.0444616 0.899112 0.305534
118 1 0.256427 0.602376 0.335378
119 2 0.344507 0.49914 0.139733
120 2 0.0591816 0.900556 0.297984
121 1 0.0471569 0.960094 0.224144
122 2 0.226241 0.853313 0.0272254
123 2 0.0432442 0.194605 0.325743
124 1 0.736947 0.929886 0.867951
125 2 0.928444 0.0496407 0.0881051
126 2 0.48802 0.840991 0.0222948
127 1 0.558209 0.462166 0.136431
128 2 0.595565 0.601757 0.302181
129 2 0.399759 0.600214 0.998096
130 1 0.506281 0.617284 0.308007
131 2 0.17671 0.602 0.371588
132 2 0.34359 0.769283 0.529935
133 1 0.781806 0.383183 0.616835
134 2 0.60833 0.277694 0.696535
135 2 -0.0240075 0.571557 0.724939
136 1 0.524741 0.402441 0.485534
137 2 0.659743 0.686741 0.581299
138 2 0.587841 0.596849 0.299561
139 1 0.706246 0.675334 0.895234
140 2 0.497124 0.597381 0.803118
141 2 0.802061 0.886737 0.883816
142 1 0.754155 0.291732 0.0674518
143 2 0.457821 0.199838 0.201434
144 2 0.929723 0.0561697 0.0833203
145 1 0.334693 0.147595 0.220328
146 2 0.290269 0.388009 0.165285
147 2 0.570454 0.155156 0.13791
148 1 0.269903 0.219559 0.830393
149 2 0.0714834 0.49018 0.702035
150 2 0.473283 0.343167 0.486841
151 1 0.99096 0.438859 0.108587
152 2 0.832402 0.756554 0.184707
153 2 0.832403 0.756554 0.184707
154 1 0.575788 0.937912 0.579387
155 2 0.640248 0.182084 0.623776
156 2 0.963937 0.136938 0.701132
157 1 0.740883 0.699995 0.559538
158 2 0.737117 0.542945 0.12127
159 2 0.493144 0.710659 0.559694
160 1 0.537606 0.214753 0.179082
161 2 0.665171 0.220449 0.904851
162 2 0.46648 0.217081 0.419188
163 1 0.188824 0.77718 0.0284476
164 2 0.257617 0.0423403 0.681305
165 2 1.00245 0.58658 0.731885
166 1 0.66867 0.575791 0.294524
167 2 0.472555 0.335705 0.477993
168 2 0.796154 0.396428 0.5265
169 1 0.767449 0.942569 0.627522
170 2 0.78472 0.744187 0.610084
171 2 0.666505 0.892894 0.896011
172 1 0.533894 0.696616 0.827957
173 2 0.33021 0.810601 0.786477
174 2 0.33021 0.810601 0.786477
175 1 0.0323578 0.914476 0.390338
176 2 0.221842 0.85574 0.0266875
177 2 0.643454 0.211993 0.918799
178 1 0.940659 0.987374 0.0348312
179 2 0.117818 0.165589 0.95907
180 2 0.0524119 0.900438 0.291764
181 1 0.904702 0.374531 0.947547
182 2 0.0463731 0.386509 0.121678
183 2 0.642955 0.212846 0.917682
184 1 0.970201 0.607116 0.646581
185 2 0.206813 0.873037 0.227914
186 2 0.783576 0.646055 0.520276
187 1 0.175329 0.0142069 0.694011
188 2 0.254324 0.0570507 0.65389
189 2 0.996697 0.805935 0.736289
190 1 0.222176 0.158432 0.983279
191 2 0.249903 0.0379234 0.685466
192 2 0.00159517 0.240547 0.945289
ITEM: TIMESTEP
400
ITEM: NUMBER OF ATOMS
192
ITEM: BOX BOUNDS pp pp pp
0.0000000000000000e+00 1.2464485979498011e+01
0.0000000000000000e+00 1.2464485979498011e+01
0.0000000000000000e+00 1.2443717891802279e+01
ITEM: ATOMS id type xs ys zs
1 1 0.541137 0.643906 0.605185
2 2 0.509672 0.896467 0.523156
3 2 0.542772 0.825235 0.830189
4 1 0.874503 0.248046 0.406512
5 2 0.937576 0.0468773 0.0846844
6 2 0.224734 0.0800101 0.46686
7 1 0.117702 0.221345 0.333118
8 2 0.885 0.310392 0.540603
9 2 0.304476 0.137619 0.151674
10 1 0.741826 0.180354 0.864193
11 2 0.941702 0.02137 0.736463
12 2 0.822249 0.0390313 0.133974
13 1 0.239056 0.949776 0.0283036
14 2 0.247781 0.189152 0.910804
15 2 0.247781 0.189152 0.910804
16 1 0.0731047 0.58989 0.777451
17 2 0.229823 0.472593 0.919955
18 2 0.969453 0.570957 0.730013
19 1 0.742029 0.910283 0.468829
20 2 0.659527 0.829651 0.30016
21 2 0.659527 0.829651 0.30016
22 1 0.719653 0.827453 0.248574
23 2 0.595292 0.590173 0.294488
24 2 0.861744 0.756321 0.0566876
25 1 0.430132 0.798671 0.0916336
26 2 0.525192 0.689195 0.335871
27 2 0.75924 0.433272 0.565087
28 1 0.340804 0.72745 0.766772
29 2 0.823597 0.334403 0.977406
30 2 0.176813 0.608205 0.354373
31 1 0.389829 0.990019 0.359279
32 2 0.0778754 0.900778 0.292822
33 2 0.280011 0.186498 0.263815
34 1 0.590619 0.207041 0.684965
35 2 0.756291 0.93021 0.54826
36 2 0.712429 0.0171294 0.883452
37 1 0.538802 0.2265 0.393907
38 2 0.472326 0.32397 0.480887
39 2 0.122583 0.299446 0.327468
40 1 0.436004 0.538819 0.97261
41 2 0.487749 0.661002 0.661922
42 2 0.694355 0.310305 -0.03516
43 1 0.962472 0.0912069 0.765072
44 2 0.0890929 0.800436 0.716457
45 2 0.755367 0.926823 0.548018
46 1 0.094663 0.61083 0.371692
47 2 0.724809 0.911057 0.211367
48 2 0.809216 0.393653 0.518467
49 1 0.050318 0.868752 0.714284
50 2 0.891502 0.424874 0.906658
51 2 0.0740288 0.901239 0.29323
52 1 0.389715 0.311319 0.495947
53 2 0.225068 0.461324 0.577909
54 2 0.161688 0.18311 0.462735
55 1 0.317792 0.893754 0.804568
56 2 0.532164 0.961742 0.950731
57 2 0.271276 0.688291 0.748961
58 1 0.540262 0.929135 0.299632
59 2 0.362868 0.0525815 0.308225
60 2 0.644828 0.135893 0.461092
61 1 0.614913 0.328435 0.937935
62 2 0.675035 0.159735 0.915983
63 2 0.477601 0.447612 0.133867
64 1 0.200466 0.136447 0.515222
65 2 0.024705 0.410044 0.670802
66 2 0.336135 0.910976 0.883165
67 1 0.736881 0.0156733 0.161466
68 2 0.466814 0.962079 0.335027
69 2 0.466814 0.962079 0.335027
70 1 0.909208 0.539953 0.775044
71 2 0.684777 0.498882 0.92887
72 2 0.237231 0.440467 0.0544424
73 1 0.611178 0.121127 0.962957
74 2 0.939185 0.0490047 0.0859693
75 2 0.550158 0.297712 0.171325
76 1 0.876404 0.726144 0.133558
77 2 0.143828 0.867888 0.0413295
78 2 0.620492 0.69158 0.861384
79 1 0.124882 0.818227 0.279677
80 2 0.181862 0.599983 0.347843
81 2 0.251164 0.746779 0.941628
82 1 0.327682 0.0778239 0.679891
83 2 0.458137 0.341556 0.478243
84 2 0.468945 0.336667 0.479941
85 1 0.951776 0.278994 0.57236
86 2 0.765049 0.179743 0.471967
87 2 0.824751 0.446579 0.650378
88 1 0.549039 0.884312 0.950172
89 2 0.676016 0.161464 0.915626
90 2 0.469562 0.735797 0.116713
91 1 0.277756 0.466159 0.15829
92 2 0.967852 0.410649 0.0455484
93 2 0.121503 0.429143 0.991506
94 1 0.791183 0.444039 0.458804
95 2 0.914903 0.256307 0.493156
96 2 0.998193 0.576459 0.733369
97 1 0.70636 0.141772 0.51123
98 2 0.521716 0.90737 0.222299
99 2 0.00338515 0.134894 0.869176
100 1 0.0248435 0.168222 0.944823
101 2 0.67272 0.254287 0.975802
102 2 0.24264 0.0603298 0.714724
103 1 0.0979157 0.430913 0.667809
104 2 0.282617 0.561211 0.596648
105 2 0.907377 0.225667 0.470937
106 1 0.282982 0.504294 0.54294
107 2 0.474837 0.645113 0.565277
108 2 0.177092 0.602471 0.355
109 1 0.417892 0.773394 0.494584
110 2 0.252662 0.0407379 0.675345
111 2 0.757963 0.932405 0.550387
112 1 0.203045 0.42047 0.974906
113 2 0.279918 0.295085 0.82407
114 2 0.484461 0.518874 0.0328774
115 1 0.918625 0.111989 0.144444
116 2 0.697926 0.0171831 0.0878607
117 2 0.0751509 0.895586 0.297682
118 1 0.256073 0.602807 0.329012
119 2 0.346563 0.489661 0.12509
120 2 0.0756346 0.888678 0.290263
121 1 0.0532923 0.954021 0.232235