ITEM: TIMESTEP
0
ITEM: NUMBER OF ATOMS
192
ITEM: BOX BOUNDS pp pp pp
0.0000000000000000e+00 1.2464485979498011e+01
0.0000000000000000e+00 1.2464485979498011e+01
0.0000000000000000e+00 1.2443717891802279e+01
ITEM: ATOMS id type xs ys zs
1 1 0.546014 0.669899 0.614914
2 2 0.49898 0.72961 0.589257
3 2 0.539862 0.66333 0.69475
4 1 0.874925 0.256643 0.389014
5 2 0.906559 0.23284 0.319138
6 2 0.933118 0.263571 0.443871
7 1 0.117622 0.193107 0.327127
8 2 0.140488 0.15907 0.396179
9 2 0.17946 0.194211 0.275968
10 1 0.753673 0.181533 0.835444
11 2 0.827561 0.16206 0.811011
12 2 0.728905 0.128717 0.890587
13 1 0.202728 0.962059 0.0367503
14 2 0.241482 0.948819 0.967668
15 2 0.230695 0.0291429 0.0707375
16 1 0.109289 0.598524 0.85978
17 2 0.144287 0.530888 0.885007
18 2 0.0308499 0.585647 0.849034
19 1 0.759395 0.911029 0.414645
20 2 0.681188 0.92192 0.400523
21 2 0.790445 0.86362 0.357789
22 1 0.769429 0.769191 0.243024
23 2 0.72292 0.704313 0.250873
24 2 0.821555 0.757647 0.183064
25 1 0.444313 0.788301 0.164422
26 2 0.421474 0.71886 0.197491
27 2 0.484551 0.831691 0.21866
28 1 0.288889 0.686017 0.777776
29 2 0.225285 0.647724 0.808189
30 2 0.286561 0.68238 0.697549
31 1 0.314196 0.965588 0.344939
32 2 0.270072 0.903773 0.319097
33 2 0.33348 0.0124603 0.282668
34 1 0.635732 0.184052 0.648033
35 2 0.668589 0.129339 0.599367
36 2 0.676982 0.186988 0.716876
37 1 0.537674 0.19201 0.377948
38 2 0.49409 0.233806 0.43083
39 2 0.614713 0.19285 0.400301
40 1 0.457616 0.506756 0.9377
41 2 0.495485 0.572325 0.911192
42 2 0.497249 0.441374 0.913407
43 1 0.952387 0.0884309 0.732955
44 2 0.910849 0.0312459 0.694969
45 2 0.030795 0.0722735 0.727975
46 1 0.0485783 0.624078 0.381469
47 2 0.0181417 0.693417 0.354979
48 2 0.0265852 0.612589 0.457872
49 1 0.025454 0.848121 0.638114
50 2 0.993248 0.77466 0.638192
51 2 0.0224704 0.878542 0.563833
52 1 0.36114 0.269713 0.513152
53 2 0.354139 0.349431 0.507703
54 2 0.290861 0.235422 0.495273
55 1 0.305458 0.890332 0.853652
56 2 0.378194 0.895809 0.887071
57 2 0.293193 0.815177 0.828412
58 1 0.546402 0.989107 0.332764
59 2 0.473482 0.959668 0.34859
60 2 0.552813 0.0627624 0.36392
61 1 0.600597 0.340502 0.916125
62 2 0.586632 0.271521 0.877587
63 2 0.649035 0.326936 0.978707
64 1 0.148684 0.173713 0.537459
65 2 0.0807672 0.2132 0.553663
66 2 0.167925 0.126982 0.59985
67 1 0.715622 0.975209 0.173938
68 2 0.654301 0.985871 0.224616
69 2 0.743552 0.900368 0.18119
70 1 0.89676 0.554589 0.815909
71 2 0.833955 0.596896 0.842399
72 2 0.914807 0.497398 0.869264
73 1 0.635101 0.0740841 0.0083138
74 2 0.670689 0.0374758 0.0702798
75 2 0.595369 0.138583 0.0347187
76 1 0.926716 0.720373 0.0842705
77 2 0.00688122 0.720705 0.0869231
78 2 0.90246 0.726206 0.00791144
79 1 0.208289 0.79172 0.247812
80 2 0.215846 0.719377 0.281679
81 2 0.201546 0.783502 0.168177
82 1 0.428824 0.131658 0.650991
83 2 0.404376 0.183382 0.594678
84 2 0.502323 0.151977 0.675906
85 1 0.967399 0.256527 0.581098
86 2 0.941184 0.189854 0.617231
87 2 0.923997 0.319221 0.606028
88 1 0.496231 0.885024 0.956409
89 2 0.544303 0.947229 0.972352
90 2 0.476528 0.848248 0.0250279
91 1 0.228721 0.466708 0.15258
92 2 0.152707 0.491004 0.16067
93 2 0.246708 0.460628 0.0745195
94 1 0.759604 0.443809 0.440245
95 2 0.794061 0.372406 0.428058
96 2 0.784907 0.474159 0.510163
97 1 0.728322 0.113385 0.450506
98 2 0.756453 0.0384357 0.455501
99 2 0.786813 0.162293 0.425554
100 1 0.989684 0.167343 0.934304
101 2 0.965324 0.242619 0.94751
102 2 0.971442 0.146117 0.85901
103 1 0.153213 0.400658 0.657229
104 2 0.199886 0.440959 0.605849
105 2 0.0787567 0.396145 0.627691
106 1 0.318643 0.483328 0.51077
107 2 0.397779 0.489821 0.522145
108 2 0.299329 0.513773 0.439001
109 1 0.438157 0.805791 0.475774
110 2 0.380139 0.847283 0.439024
111 2 0.489337 0.856652 0.510868
112 1 0.245658 0.44782 0.934645
113 2 0.240582 0.369679 0.917239
114 2 0.322725 0.470031 0.935661
115 1 0.882145 0.137791 0.173993
116 2 0.825971 0.0811141 0.182119
117 2 0.953715 0.103171 0.163348
118 1 0.249687 0.586235 0.325438
119 2 0.246987 0.5423 0.258274
120 2 0.175277 0.596925 0.353459
121 1 0.0592002 0.00585693 0.214002
122 2 0.113949 0.957534 0.180763
123 2 0.0961286 0.0668987 0.250722
124 1 0.777043 0.915567 0.897689
125 2 0.841246 0.929379 0.943818
126 2 0.712322 0.948905 0.931412
127 1 0.58184 0.448616 0.130528
128 2 0.61091 0.499239 0.185628
129 2 0.537664 0.489354 0.0773111
130 1 0.465176 0.644517 0.322415
131 2 0.394576 0.606811 0.317155
132 2 0.458281 0.707441 0.371758
133 1 0.78413 0.379839 0.689166
134 2 0.719302 0.334442 0.676099
135 2 0.806951 0.372493 0.765837
136 1 0.53691 0.484763 0.505374
137 2 0.565392 0.548579 0.54481
138 2 0.596971 0.448112 0.466799
139 1 0.731154 0.707015 0.871538
140 2 0.659385 0.700013 0.836353
141 2 0.7437 0.783634 0.891714
142 1 0.745807 0.282234 0.0748704
143 2 0.700336 0.280227 0.141026
144 2 0.808875 0.233589 0.0843602
145 1 0.292664 0.178247 0.199335
146 2 0.252256 0.203793 0.13482
147 2 0.367468 0.207113 0.197144
148 1 0.267621 0.254832 0.780571
149 2 0.21813 0.302753 0.739418
150 2 0.305088 0.205278 0.729749
151 1 0.971629 0.479663 0.116546
152 2 0.949811 0.458497 0.190897
153 2 0.945626 0.553974 0.101177
154 1 0.550321 0.959574 0.600064
155 2 0.504082 0.0210223 0.622901
156 2 0.615807 0.9568 0.646375
157 1 0.744816 0.69487 0.543784
158 2 0.756379 0.751249 0.487821
159 2 0.66613 0.684107 0.555038
160 1 0.536881 0.218072 0.161082
161 2 0.537845 0.29453 0.136816
162 2 0.528936 0.2154 0.240986
163 1 0.148293 0.742146 0.0357619
164 2 0.178324 0.816242 0.0293042
165 2 0.155922 0.704009 0.965495
166 1 0.672326 0.569442 0.300901
167 2 0.598435 0.580701 0.330053
168 2 0.709421 0.512455 0.343517
169 1 0.786457 0.919464 0.675621
170 2 0.776293 0.845176 0.647086
171 2 0.79374 0.91672 0.755586
172 1 0.513517 0.712015 0.821414
173 2 0.51686 0.769548 0.877296
174 2 0.436926 0.692656 0.807506
175 1 0.00338005 0.930048 0.438368
176 2 0.0317215 0.951292 0.366281
177 2 0.923698 0.939168 0.439479
178 1 0.962117 0.952717 0.994852
179 2 0.957501 0.0298884 0.97344
180 2 0.0372912 0.935542 0.0169695
181 1 0.886526 0.369257 0.942452
182 2 0.916131 0.397826 0.0114213
183 2 0.81211 0.341921 0.954666
184 1 0.929283 0.611897 0.609124
185 2 0.924179 0.588439 0.685785
186 2 0.857113 0.635899 0.583606
187 1 0.189592 0.00741323 0.705814
188 2 0.252708 0.993514 0.753399
189 2 0.142339 0.942613 0.704492
190 1 0.223431 0.194923 0.989452
191 2 0.257581 0.21903 0.920882
192 2 0.146194 0.177806 0.976197
ITEM: TIMESTEP
100
ITEM: NUMBER OF ATOMS
192
ITEM: BOX BOUNDS pp pp pp
0.0000000000000000e+00 1.2464485979498011e+01
0.0000000000000000e+00 1.2464485979498011e+01
0.0000000000000000e+00 1.2443717891802279e+01
ITEM: ATOMS id type xs ys zs
1 1 0.562766 0.646815 0.613294
2 2 0.38527 0.848898 0.422191
3 2 0.606019 0.665165 0.881655
4 1 0.897258 0.255835 0.388125
5 2 0.922563 0.0881119 0.159763
6 2 0.198211 0.0729852 0.490092
7 1 0.0917015 0.216978 0.341624
8 2 0.989707 0.193736 0.553757
9 2 0.319938 0.0658729 0.183282
10 1 0.745512 0.185832 0.885918
11 2 0.973203 0.0290934 0.769227
12 2 0.785036 0.0863457 0.187453
13 1 0.219109 0.931249 0.0498907
14 2 0.259519 0.204695 0.92075
15 2 0.238756 0.197068 0.921428
16 1 0.0913051 0.588605 0.823913
17 2 0.243876 0.401797 0.871287
18 2 0.987636 0.614937 0.720837
19 1 0.746237 0.90969 0.455005
20 2 0.669848 0.875144 0.253536
21 2 0.680592 0.863346 0.244485
22 1 0.735306 0.803756 0.242953
23 2 0.668446 0.587031 0.202823
24 2 0.956985 0.769592 0.0905071
25 1 0.431619 0.786882 0.121923
26 2 0.544798 0.580833 0.297029
27 2 0.538881 0.580991 0.278122
28 1 0.321063 0.704297 0.759811
29 2 0.961504 0.588051 0.710788
30 2 0.1714 0.652249 0.383937
31 1 0.33181 0.997069 0.383691
32 2 0.228318 0.766137 0.222677
33 2 0.269641 0.181653 0.196945
34 1 0.602496 0.219633 0.665781
35 2 0.711218 0.91555 0.569414
36 2 0.690535 0.234044 0.97234
37 1 0.52717 0.178836 0.393993
38 2 0.321474 0.281521 0.527991
39 2 0.986648 0.236747 0.384461
40 1 0.433001 0.54467 0.948931
41 2 0.63791 0.672993 0.882581
42 2 0.666942 0.241501 0.935962
43 1 0.944718 0.101652 0.749903
44 2 0.682229 0.994953 0.567103
45 2 0.275076 0.064279 0.683159
46 1 0.045385 0.620678 0.380661
47 2 0.0469009 0.946352 0.337386
48 2 0.874718 0.448081 0.329387
49 1 0.0334824 0.8469 0.702728
50 2 0.974646 0.576318 0.699796
51 2 0.0459435 0.906635 0.344391
52 1 0.386222 0.292488 0.492672
53 2 0.209102 0.476744 0.568048
54 2 0.132922 0.202307 0.421728
55 1 0.310096 0.920142 0.825818
56 2 0.52001 0.959785 0.99165
57 2 0.251936 0.664159 0.743386
58 1 0.559224 0.939457 0.307574
59 2 0.32046 0.0541388 0.334442
60 2 0.665243 0.148288 0.429412
61 1 0.592592 0.308383 0.901725
62 2 0.665875 0.279941 0.676716
63 2 0.537278 0.402331 0.164097
64 1 0.188643 0.149164 0.526931
65 2 0.0416696 0.346271 0.634748
66 2 0.279513 0.0453234 0.68903
67 1 0.764657 0.0109532 0.173112
68 2 0.489267 0.976677 0.301252
69 2 0.487833 0.979043 0.308622
70 1 0.89766 0.547684 0.794965
71 2 0.628962 0.678845 0.878026
72 2 0.946834 0.404321 0.0602647
73 1 0.625603 0.119564 0.973197
74 2 0.974277 0.161737 0.239763
75 2 0.679398 0.31142 0.0642245
76 1 0.904718 0.714941 0.119903
77 2 0.210899 0.837749 0.0390486
78 2 0.641924 0.687156 0.874498
79 1 0.167574 0.806297 0.245453
80 2 0.250519 0.554315 0.343414
81 2 0.187109 0.936246 0.121993
82 1 0.355022 0.0712261 0.663461
83 2 0.538447 0.173552 0.311409
84 2 0.628807 0.450546 0.498521
85 1 0.964244 0.263992 0.573065
86 2 0.660791 0.176335 0.588708
87 2 0.756941 0.369202 0.609977
88 1 0.520706 0.896185 0.950465
89 2 0.671264 0.207686 0.910815
90 2 0.478694 0.756018 0.179864
91 1 0.269968 0.451483 0.163375
92 2 0.953542 0.413835 0.0570875
93 2 0.175405 0.339186 0.945766
94 1 0.77014 0.450313 0.437093
95 2 0.929879 0.253569 0.471963
96 2 0.974187 0.560087 0.746162
97 1 0.712007 0.120597 0.485732
98 2 0.716597 0.919782 0.550258
99 2 0.791993 0.830875 0.298231
100 1 0.0107243 0.161547 0.941631
101 2 0.918562 0.320372 0.976374
102 2 0.251197 0.0191674 0.722201
103 1 0.0892306 0.410371 0.659939
104 2 0.331226 0.500421 0.594596
105 2 0.932074 0.258262 0.48409
106 1 0.27844 0.508663 0.53948
107 2 0.571009 0.593991 0.553334
108 2 0.402413 0.626903 0.296996
109 1 0.405185 0.801922 0.478462
110 2 0.207932 0.1226 0.606803
111 2 0.722129 0.94011 0.551982
112 1 0.211745 0.409899 0.941105
113 2 0.333193 0.266854 0.800506
114 2 0.474965 0.499402 0.000387184
115 1 0.92452 0.161508 0.177964
116 2 0.709035 0.0206016 0.119275
117 2 0.0364263 0.944928 0.28536
118 1 0.250319 0.629561 0.362142
119 2 0.34636 0.45756 0.170239
120 2 0.0897588 0.675425 0.338533
121 1 0.0349805 0.948923 0.199473
122 2 0.156615 0.832867 0.0574217
123 2 0.00564021 0.236197 0.373134
124 1 0.756004 0.926595 0.866685
125 2 0.00889724 0.940017 0.950698
126 2 0.481258 0.846382 0.00886869
127 1 0.570593 0.460626 0.133303
128 2 0.705857 0.508046 0.294459
129 2 0.36864 0.539617 0.991508
130 1 0.488821 0.636124 0.322659
131 2 0.133393 0.637932 0.358168
132 2 0.33496 0.771858 0.496715
133 1 0.765803 0.384403 0.684702
134 2 0.663927 0.204253 0.942765
135 2 0.943477 0.440624 0.887721
136 1 0.545118 0.459345 0.519197
137 2 0.654079 0.652173 0.565171
138 2 0.751003 0.537366 0.415902
139 1 0.71679 0.668 0.87772
140 2 0.594657 0.681124 0.903816
141 2 0.823209 0.939358 0.916542
142 1 0.752795 0.276042 0.0555314
143 2 0.459991 0.198567 0.172836
144 2 0.987864 0.0919669 0.976314
145 1 0.324493 0.136959 0.215914
146 2 0.249732 0.423565 0.029368
147 2 0.570608 0.186375 0.0968577
148 1 0.265419 0.237528 0.817799
149 2 0.146207 0.373997 0.70146
150 2 0.457395 0.215609 0.398267
151 1 0.972897 0.441283 0.11703
152 2 0.847232 0.756662 0.161664
153 2 0.83895 0.74326 0.150972
154 1 0.602024 0.951134 0.552399
155 2 0.529357 0.221604 0.623854
156 2 0.878947 0.0793268 0.718695
157 1 0.749744 0.709035 0.537732
158 2 0.752024 0.938034 0.536921
159 2 0.572879 0.508877 0.574624
160 1 0.542549 0.206319 0.167634
161 2 0.648577 0.26656 0.952399
162 2 0.369364 0.349726 0.438816
163 1 0.173503 0.76259 0.0237832
164 2 0.294564 0.990152 0.810415
165 2 0.0413686 0.58643 0.760019
166 1 0.684567 0.58466 0.295222
167 2 0.508047 0.382944 0.518719
168 2 0.798615 0.373116 0.448993
169 1 0.757123 0.943485 0.63237
170 2 0.810001 0.681107 0.570091
171 2 0.698853 0.934497 0.929075
172 1 0.549477 0.686913 0.830582
173 2 0.316971 0.764826 0.807801
174 2 0.318443 0.760201 0.813634
175 1 0.0093134 0.939571 0.406334
176 2 0.174711 0.844701 0.169162
177 2 0.706319 0.0173423 0.578274
178 1 0.95181 0.958035 0.995439
179 2 0.219865 0.107513 0.0216427
180 2 0.0903695 0.89913 0.198839
181 1 0.902799 0.378888 0.901045
182 2 0.0265259 0.383737 0.120772
183 2 0.685545 0.181887 0.967351
184 1 0.943153 0.598614 0.630494
185 2 0.00798069 0.580281 0.77911
186 2 0.684728 0.665911 0.561593
187 1 0.191251 0.0190753 0.692501
188 2 0.279468 0.938204 0.763372
189 2 0.962723 0.836699 0.738815
190 1 0.238504 0.184179 0.0074591
191 2 0.291996 0.0627347 0.689062
192 2 0.9884 0.145964 0.870662
ITEM: TIMESTEP
200
ITEM: NUMBER OF ATOMS
192
ITEM: BOX BOUNDS pp pp pp
0.0000000000000000e+00 1.2464485979498011e+01
0.0000000000000000e+00 1.2464485979498011e+01
0.0000000000000000e+00 1.2443717891802279e+01
ITEM: ATOMS id type xs ys zs
1 1 0.576348 0.642857 0.613285
2 2 0.371478 0.865794 0.442919
3 2 0.623187 0.685279 0.872213
4 1 0.910586 0.254061 0.385051
5 2 0.937046 0.117808 0.101967
6 2 0.244828 0.103334 0.472123
7 1 0.0638379 0.230469 0.384423
8 2 0.967 0.245014 0.434757
9 2 0.310092 0.102838 0.149254
10 1 0.748113 0.202403 0.884206
11 2 0.982965 0.023906 0.73741
12 2 0.811351 0.0458335 0.186701
13 1 0.219902 0.926507 0.0715287
14 2 0.251364 0.197843 0.910769
15 2 0.251295 0.197828 0.910977
16 1 0.0697183 0.59806 0.787048
17 2 0.272553 0.428492 0.920512
18 2 -0.012688 0.603843 0.726196
19 1 0.740967 0.909937 0.46914
20 2 0.708233 0.892515 0.240425
21 2 0.708192 0.892279 0.240251
22 1 0.732125 0.815601 0.251438
23 2 0.617795 0.508926 0.190579
24 2 0.92355 0.806743 0.0819547
25 1 0.438483 0.795085 0.108784
26 2 0.56108 0.600878 0.298601
27 2 0.561017 0.600782 0.298605
28 1 0.330773 0.711949 0.770837
29 2 0.976957 0.60133 0.738701
30 2 0.218679 0.56858 0.344108
31 1 0.36322 0.989951 0.377918
32 2 0.177287 0.820241 0.129256
33 2 0.292694 0.215413 0.195664
34 1 0.618555 0.221813 0.664156
35 2 0.701627 0.938524 0.542354
36 2 0.694726 0.225702 0.966296
37 1 0.535995 0.178681 0.391014
38 2 0.329311 0.25345 0.51109
39 2 0.988094 0.24598 0.430104
40 1 0.443501 0.541842 0.963148
41 2 0.606734 0.666775 0.857371
42 2 0.683429 0.19669 0.963294
43 1 0.946227 0.0947945 0.743935
44 2 0.706117 0.943402 0.55226
45 2 0.262161 0.0339545 0.690891
46 1 0.0589989 0.622377 0.378725
47 2 0.0489203 0.924875 0.296588
48 2 0.840271 0.467145 0.383493
49 1 0.0353567 0.857626 0.715296
50 2 0.0177352 0.576631 0.719452
51 2 0.0219162 0.945938 0.297418
52 1 0.384087 0.308239 0.492964
53 2 0.205013 0.481411 0.563507
54 2 0.984989 0.247189 0.424014
55 1 0.3171 0.912106 0.81617
56 2 0.537262 0.955484 0.979933
57 2 0.264635 0.700665 0.723243
58 1 0.557548 0.942497 0.312229
59 2 0.334789 0.0410485 0.325359
60 2 0.650721 0.155446 0.442623
61 1 0.622912 0.299704 0.912953
62 2 0.66974 0.286934 0.676401
63 2 0.546674 0.407752 0.159559
64 1 0.200317 0.145879 0.521357
65 2 0.102276 0.338015 0.645499
66 2 0.275354 0.0335716 0.677353
67 1 0.742851 0.00720829 0.178921
68 2 0.484161 0.963795 0.336791
69 2 0.484109 0.963652 0.336744
70 1 0.893401 0.536153 0.794205
71 2 0.614654 0.698489 0.866366
72 2 0.935753 0.241412 0.139526
73 1 0.635431 0.142115 0.97705
74 2 0.992881 0.146063 0.216998
75 2 0.713601 0.254979 0.948968
76 1 0.89343 0.732282 0.111215
77 2 0.178256 0.84861 0.0942723
78 2 0.612757 0.699584 0.865275
79 1 0.176264 0.806385 0.231709
80 2 0.433892 0.896874 0.10178
81 2 0.183812 0.83783 0.0941524
82 1 0.345703 0.0657806 0.680325
83 2 0.539386 0.191728 0.311377
84 2 0.591784 0.42959 0.4602
85 1 0.981721 0.247338 0.543585
86 2 0.691993 0.170193 0.565045
87 2 0.725133 0.402109 0.617356
88 1 0.524515 0.882315 0.956091
89 2 0.707856 0.254308 0.944567
90 2 0.472168 0.786059 0.179282
91 1 0.278869 0.447348 0.154443
92 2 0.0280156 0.471322 0.13264
93 2 0.165348 0.358115 0.942287
94 1 0.777481 0.450439 0.433741
95 2 0.982816 0.252707 0.429136
96 2 0.98176 0.540252 0.762667
97 1 0.706771 0.123935 0.496036
98 2 0.708461 0.93446 0.546086
99 2 0.707125 0.781912 0.321891
100 1 0.015706 0.149893 0.953772
101 2 0.830655 0.313766 0.942637
102 2 0.25832 0.0336207 0.678712
103 1 0.0865919 0.414776 0.656063
104 2 0.318105 0.524705 0.600452
105 2 0.982302 0.24753 0.41743
106 1 0.279582 0.491278 0.541707
107 2 0.527377 0.689111 0.568165
108 2 0.394357 0.610052 0.311903
109 1 0.40113 0.801037 0.479842
110 2 0.216405 0.102685 0.583706
111 2 0.644449 0.051361 0.513374
112 1 0.200836 0.427137 0.951569
113 2 0.331629 0.263543 0.811849
114 2 0.489971 0.516844 0.0246288
115 1 0.924971 0.163623 0.17328
116 2 0.736571 0.00133426 0.0999918
117 2 0.0280352 0.927538 0.273195
118 1 0.264673 0.633356 0.356491
119 2 0.35389 0.449677 0.133602
120 2 0.954399 0.36535 0.618971
121 1 0.0361749 0.958142 0.204992
122 2 0.178671 0.841282 0.0873045
123 2 0.992927 0.249894 0.4386
124 1 0.75334 0.923823 0.866793
125 2 0.98329 0.929123 0.937074
126 2 0.498182 0.835272 0.0225463
127 1 0.568658 0.477872 0.133242
128 2 0.68901 0.534065 0.338253
129 2 0.384305 0.570486 0.00621809
130 1 0.485192 0.627189 0.3218
131 2 0.130585 0.650518 0.369925
132 2 0.351336 0.745132 0.451734
133 1 0.757833 0.381268 0.683044
134 2 0.683492 0.228456 0.95084
135 2 0.940031 0.402599 -0.00559318
136 1 0.544705 0.455954 0.518777
137 2 0.646905 0.662647 0.578647
138 2 0.780032 0.503857 0.497678
139 1 0.69516 0.666382 0.888278
140 2 0.600544 0.656942 0.855027
141 2 0.815823 0.92848 0.916343
142 1 0.727941 0.261122 0.0352679
143 2 0.458722 0.193705 0.184668
144 2 0.988879 0.0723274 0.962801
145 1 0.328173 0.146681 0.211885
146 2 0.242427 0.440893 0.0828304
147 2 0.566629 0.135712 0.161213
148 1 0.265327 0.220855 0.827558
149 2 0.130635 0.42429 0.723129
150 2 0.47857 0.22781 0.417373
151 1 0.978779 0.424931 0.0997287
152 2 0.840085 0.743238 0.16892
153 2 0.839857 0.743133 0.168782
154 1 0.615438 0.950672 0.554727
155 2 0.564549 0.251348 0.615749
156 2 0.877869 0.0746544 0.777462
157 1 0.735633 0.696724 0.542033
158 2 0.69946 0.925333 0.548598
159 2 0.556071 0.535582 0.554105
160 1 0.537621 0.207239 0.174892
161 2 0.716522 0.266071 0.931985
162 2 0.338404 0.375669 0.495297
163 1 0.164256 0.765872 0.040192
164 2 0.27209 0.970064 0.783967
165 2 1.01873 0.571306 0.746843
166 1 0.656936 0.578793 0.279131
167 2 0.4746 0.410532 0.51052
168 2 0.778844 0.373492 0.462066
169 1 0.755453 0.941942 0.620134
170 2 0.780473 0.70397 0.605707
171 2 0.691536 0.922731 0.914773
172 1 0.534976 0.694721 0.830414
173 2 0.337905 0.785757 0.800542
174 2 0.337973 0.785817 0.800452
175 1 0.0227447 0.93292 0.374589
176 2 0.149342 0.876466 0.2205
177 2 0.702703 0.934946 0.547474
178 1 0.943685 0.956362 0.997924
179 2 0.141726 0.164101 0.986257
180 2 0.0359805 0.91916 0.282597
181 1 0.894073 0.377255 0.924989
182 2 1.00252 0.569874 0.741928
183 2 0.704245 0.201917 0.950563
184 1 0.967484 0.600106 0.652111
185 2 1.00625 0.570026 0.741715
186 2 0.665163 0.66864 0.570148
187 1 0.182864 0.00893977 0.689616
188 2 0.271545 0.958203 0.769279
189 2 0.974731 0.849099 0.761156
190 1 0.22877 0.171501 0.988556
191 2 0.264009 0.040042 0.690247
192 2 0.992092 0.165174 0.879355
ITEM: TIMESTEP
300
ITEM: NUMBER OF ATOMS
192
ITEM: BOX BOUNDS pp pp pp
0.0000000000000000e+00 1.2464485979498011e+01
0.0000000000000000e+00 1.2464485979498011e+01
0.0000000000000000e+00 1.2443717891802279e+01
ITEM: ATOMS id type xs ys zs
1 1 0.562104 0.63768 0.612027
2 2 0.38391 0.861097 0.445723
3 2 0.597208 0.683967 0.864941
4 1 0.91443 0.260591 0.389958
5 2 0.959611 0.152279 0.0786229
6 2 0.242605 0.106048 0.463298
7 1 0.0635078 0.240438 0.393426
8 2 0.776607 0.141289 0.462215
9 2 0.293738 0.125619 0.141296
10 1 0.772652 0.200809 0.861261
11 2 0.98043 0.00878375 0.742381
12 2 0.799044 0.0660799 0.190228
13 1 0.226922 0.938796 0.0669168
14 2 0.241757 0.196988 0.906836
15 2 0.241758 0.196988 0.906836
16 1 0.0628688 0.590659 0.785219
17 2 0.266901 0.43439 0.983722
18 2 0.565184 0.808872 0.910889
19 1 0.743804 0.907288 0.461064
20 2 0.670193 0.877183 0.267842
21 2 0.670193 0.877182 0.26784
22 1 0.725743 0.818993 0.256793
23 2 0.603774 0.501789 0.176777
24 2 0.938126 0.806888 0.0853584
25 1 0.438338 0.799577 0.111612
26 2 0.567046 0.607006 0.304226
27 2 0.567046 0.607005 0.304226
28 1 0.345298 0.719337 0.77215
29 2 0.981257 0.583344 0.735997
30 2 0.207486 0.616084 0.354838
31 1 0.3911 0.990347 0.36134
32 2 0.209194 0.858098 0.0469818
33 2 0.30097 0.223858 0.218256
34 1 0.628582 0.223024 0.661891
35 2 0.69871 0.941278 0.544675
36 2 0.804335 0.292132 0.970485
37 1 0.536051 0.184569 0.388151
38 2 0.341739 0.245852 0.509386
39 2 0.995281 0.258511 0.440421
40 1 0.443688 0.547414 0.969707
41 2 0.59543 0.685252 0.868503
42 2 0.665346 0.192756 0.967151
43 1 0.949624 0.084862 0.747487
44 2 0.727186 0.922847 0.572663
45 2 0.27328 0.017429 0.682516
46 1 0.0517431 0.60905 0.392297
47 2 0.0635907 0.896241 0.277869
48 2 0.844286 0.451505 0.378707
49 1 0.034513 0.875139 0.726291
50 2 0.969074 0.587126 0.738294
51 2 0.0675521 0.901616 0.274324
52 1 0.385925 0.310726 0.49426
53 2 0.205577 0.509685 0.506052
54 2 0.980611 0.247199 0.438542
55 1 0.323805 0.907435 0.818644
56 2 0.533232 0.95675 0.946756
57 2 0.28986 0.696652 0.716216
58 1 0.551828 0.946411 0.311271
59 2 0.348795 0.0379005 0.308905
60 2 0.608229 0.168407 0.425694
61 1 0.627731 0.31193 0.905662
62 2 0.703401 0.314922 0.671957
63 2 0.540496 0.396435 0.146206
64 1 0.205866 0.148433 0.518222
65 2 0.126969 0.367719 0.604584
66 2 0.2513 0.0421018 0.689793
67 1 0.739394 0.0124847 0.169224
68 2 0.473702 0.96922 0.332223
69 2 0.473702 0.969219 0.332223
70 1 0.915428 0.539831 0.790584
71 2 0.579495 0.725626 0.795968
72 2 0.941067 0.260788 0.152111
73 1 0.629361 0.120149 0.986352
74 2 0.981274 0.137528 0.210062
75 2 0.779632 0.277775 0.924971
76 1 0.888092 0.742679 0.110444
77 2 0.806095 0.825628 0.92497
78 2 0.604847 0.693607 0.853923
79 1 0.148871 0.826711 0.26026
80 2 0.359478 0.81684 0.102766
81 2 0.669673 0.0564689 0.153285
82 1 0.338771 0.0636339 0.68554
83 2 0.543274 0.188455 0.304244
84 2 0.554873 0.469592 0.444071
85 1 0.986796 0.251678 0.524406
86 2 0.664623 0.195387 0.595227
87 2 0.70552 0.429066 0.64441
88 1 0.536171 0.874507 0.94779
89 2 0.666858 0.192454 0.967899
90 2 0.444385 0.760542 0.180172
91 1 0.28859 0.443486 0.157065
92 2 0.998682 0.465625 0.116336
93 2 0.15556 0.384817 0.98614
94 1 0.781555 0.455808 0.430512
95 2 0.997598 0.247136 0.428413
96 2 0.981732 0.576635 0.736293
97 1 0.705389 0.133402 0.494549
98 2 0.716995 0.921279 0.546473
99 2 0.694929 0.745365 0.28356
100 1 0.0154258 0.136419 0.965538
101 2 0.774512 0.274051 0.919234
102 2 0.251593 0.0395571 0.673536
103 1 0.082315 0.40543 0.661429
104 2 0.286798 0.518172 0.611967
105 2 0.986604 0.252962 0.434032
106 1 0.280822 0.493499 0.535383
107 2 0.523176 0.689158 0.561587
108 2 0.326721 0.595244 0.303569
109 1 0.393309 0.792514 0.484299
110 2 0.231209 0.105865 0.578214
111 2 0.699705 0.0588038 0.51574
112 1 0.197974 0.435132 0.942526
113 2 0.323314 0.273059 0.822124
114 2 0.477639 0.509733 0.03341
115 1 0.931709 0.174086 0.158369
116 2 0.770967 0.964547 0.109985
117 2 0.0765727 0.914051 0.280428
118 1 0.286205 0.632268 0.359721
119 2 0.33273 0.474821 0.0987022
120 2 0.00848762 0.368883 0.662947
121 1 0.0425584 0.953921 0.212572
122 2 0.194321 0.855347 0.0759738
123 2 0.985668 0.255799 0.443315
124 1 0.756228 0.917547 0.873647
125 2 0.994533 0.913592 0.960718
126 2 0.496978 0.848153 0.0184201
127 1 0.567468 0.464431 0.117101
128 2 0.693805 0.547786 0.346318
129 2 0.376311 0.54865 0.0135887
130 1 0.489416 0.628356 0.322172
131 2 0.0642985 0.651676 0.329653
132 2 0.347983 0.743452 0.440468
133 1 0.754852 0.377131 0.674553
134 2 0.708917 0.276114 0.913862
135 2 0.904075 0.372226 0.00723365
136 1 0.547093 0.45888 0.52281
137 2 0.665584 0.660941 0.568591
138 2 0.797331 0.507715 0.492291
139 1 0.675195 0.66928 0.892252
140 2 0.572672 0.633455 0.00803575
141 2 0.825597 0.950799 0.901906
142 1 0.751634 0.282708 0.0580258
143 2 0.457256 0.184962 0.181559
144 2 0.988978 0.0552225 0.976733
145 1 0.329573 0.151707 0.207194
146 2 0.247555 0.464608 0.0927522
147 2 0.562006 0.180688 0.108705
148 1 0.267323 0.215933 0.825437
149 2 0.122805 0.397711 0.732848
150 2 0.483542 0.241728 0.415779
151 1 0.968517 0.395503 0.102341
152 2 0.867754 0.746469 0.186581
153 2 0.867755 0.746468 0.186581
154 1 0.605828 0.953025 0.561859
155 2 0.565261 0.260796 0.63529
156 2 0.875783 0.0708316 0.76796
157 1 0.73914 0.693042 0.540559
158 2 0.694329 0.944133 0.54882
159 2 0.556773 0.550824 0.562722
160 1 0.536059 0.206188 0.18
161 2 0.695268 0.254834 0.911327
162 2 0.332094 0.369002 0.500315
163 1 0.156422 0.745664 0.0303623
164 2 0.338913 0.960134 0.765042
165 2 0.323715 0.548139 0.477822
166 1 0.652319 0.583445 0.285832
167 2 0.484877 0.405399 0.526086
168 2 0.757177 0.384821 0.462502
169 1 0.765669 0.937437 0.633279
170 2 0.781677 0.676063 0.604434
171 2 0.704859 0.969995 0.902745
172 1 0.521959 0.698406 0.824442
173 2 0.328788 0.795025 0.802026
174 2 0.328788 0.795026 0.802025
175 1 0.0339522 0.915376 0.365487
176 2 0.0961309 0.894794 0.252553
177 2 0.68133 0.938712 0.535993
178 1 0.936561 0.951716 0.99698
179 2 0.128924 0.153556 0.976679
180 2 0.0692946 0.917551 0.283908
181 1 0.860384 0.359285 0.933793
182 2 0.982226 0.583492 0.742272
183 2 0.731858 0.273246 0.981205
184 1 0.967182 0.599548 0.656937
185 2 0.980657 0.566682 0.76598
186 2 0.649566 0.660048 0.574694
187 1 0.181629 0.0037855 0.685968
188 2 0.239451 0.911795 0.813891
189 2 0.969746 0.839702 0.746383
190 1 0.215981 0.170199 0.983121
191 2 0.260244 0.0435688 0.695205
192 2 0.993992 0.146016 0.888182
ITEM: TIMESTEP
400
ITEM: NUMBER OF ATOMS
192
ITEM: BOX BOUNDS pp pp pp
0.0000000000000000e+00 1.2464485979498011e+01
0.0000000000000000e+00 1.2464485979498011e+01
0.0000000000000000e+00 1.2443717891802279e+01
ITEM: ATOMS id type xs ys zs
1 1 0.550311 0.63786 0.611279
2 2 0.370192 0.855622 0.44773
3 2 0.586202 0.696198 0.866521
4 1 0.91215 0.263453 0.386277
5 2 0.964995 0.160205 0.0806156
6 2 0.226043 0.0968957 0.577708
7 1 0.0692608 0.241845 0.392424
8 2 0.779406 0.133789 0.454465
9 2 0.291336 0.112245 0.144898
10 1 0.767505 0.19436 0.874326
11 2 0.988492 0.982915 0.743608
12 2 0.802792 0.0753343 0.178512
13 1 0.238016 0.940083 0.0639569
14 2 0.238569 0.19317 0.907029
15 2 0.238569 0.19317 0.907029
16 1 0.0636103 0.589429 0.782968
17 2 0.258877 0.456389 0.0433315
18 2 0.532617 0.803707 0.899743
19 1 0.739425 0.908767 0.466851
20 2 0.641873 0.875243 0.281092
21 2 0.641873 0.875243 0.281092
22 1 0.707687 0.82543 0.263367
23 2 0.611043 0.495455 0.167307
24 2 0.9272 0.83584 0.078772
25 1 0.431826 0.796515 0.107383
26 2 0.569229 0.606311 0.303676
27 2 0.569229 0.606311 0.303676
28 1 0.359078 0.730872 0.775001
29 2 0.989914 0.580046 0.743384
30 2 0.148466 0.619805 0.366412
31 1 0.402521 0.990639 0.349902
32 2 0.155153 0.793436 0.0944771
33 2 0.28447 0.200924 0.234377
34 1 0.615334 0.216404 0.65461
35 2 0.712315 0.939922 0.549344
36 2 0.6895 0.266404 0.955305
37 1 0.533732 0.188873 0.386963
38 2 0.34408 0.24754 0.507034
39 2 0.0896843 0.469835 0.341826
40 1 0.424651 0.544133 0.981599
41 2 0.59644 0.689031 0.868095
42 2 0.672396 0.169371 0.966215
43 1 0.956411 0.0734399 0.751379
44 2 0.699051 0.941916 0.546515
45 2 0.197041 0.0533 0.627847
46 1 0.0699375 0.606009 0.38974
47 2 0.0958577 0.905267 0.183921
48 2 0.839048 0.432366 0.376693
49 1 0.0315622 0.897095 0.735378
50 2 0.976746 0.580101 0.741741
51 2 0.706074 0.632452 0.834251
52 1 0.390224 0.310804 0.495488
53 2 0.205256 0.525061 0.511233
54 2 0.994783 0.226268 0.412026
55 1 0.320139 0.894021 0.821846
56 2 0.529669 0.951361 0.946909
57 2 0.304663 0.702696 0.722214
58 1 0.562824 0.94132 0.305549
59 2 0.352276 0.0298783 0.296008
60 2 0.610796 0.182617 0.414704
61 1 0.633843 0.319753 0.908896
62 2 0.713174 0.330412 0.708123
63 2 0.556155 0.386442 0.142354
64 1 0.210635 0.147763 0.522143
65 2 0.136469 0.380986 0.60122
66 2 0.278217 0.024776 0.670385
67 1 0.743708 0.0173495 0.164496
68 2 0.481397 0.964888 0.323471
69 2 0.481397 0.964888 0.323471
70 1 0.916915 0.549831 0.793492
71 2 0.592648 0.70563 0.848141
72 2 0.967989 0.300216 0.137954
73 1 0.621435 0.115036 0.994248
74 2 0.977064 0.12501 0.197816
75 2 0.736865 0.247598 0.938835
76 1 0.888304 0.755186 0.114732
77 2 0.732054 0.853627 0.913878
78 2 0.558576 0.410927 0.886161
79 1 0.160697 0.815649 0.258138
80 2 0.358714 0.833004 0.100955
81 2 0.685603 0.048011 0.112954
82 1 0.344216 0.061944 0.68493
83 2 0.536405 0.189927 0.300337
84 2 0.533263 0.487453 0.446572
85 1 0.986962 0.251723 0.52477
86 2 0.689986 0.21487 0.617216
87 2 0.703308 0.437215 0.650849
88 1 0.538691 0.870393 0.951068
89 2 0.723128 0.241045 0.949234
90 2 0.437164 0.775562 0.183231
91 1 0.290795 0.453382 0.127779
92 2 0.0114676 0.431698 0.132438
93 2 0.220665 0.439374 0.0375401
94 1 0.781215 0.461446 0.428645
95 2 0.992291 0.28528 0.447019
96 2 0.98548 0.583737 0.744095
97 1 0.709974 0.132568 0.491243
98 2 0.6876 0.944897 0.531182
99 2 0.692705 0.745962 0.272525
100 1 0.0129602 0.128421 0.965036
101 2 0.932652 0.339153 0.885314
102 2 0.22246 0.0745376 0.563781
103 1 0.0846697 0.398978 0.662903
104 2 0.301591 0.53362 0.591478
105 2 0.86107 -0.00632264 0.530612
106 1 0.276446 0.494562 0.528009
107 2 0.508193 0.689096 0.563358
108 2 0.33505 0.622394 0.316493
109 1 0.391124 0.788806 0.484572
110 2 0.199978 0.0317536 0.609591
111 2 0.709866 0.0499372 0.509459
112 1 0.2234 0.445119 0.959503
113 2 0.301894 0.284453 0.822748
114 2 0.354486 0.519073 0.0149442
115 1 0.935508 0.177343 0.153659
116 2 0.782901 0.957192 0.125815
117 2 0.564077 0.175371 0.603626
118 1 0.277972 0.628637 0.370646
119 2 0.257865 0.457345 0.039733
120 2 0.0160036 0.351381 0.650195
121 1 0.0367004 0.95558 0.19715
122 2 0.200703 0.868032 0.067855
123 2 0.992517 0.269663 0.440193