ITEM: TIMESTEP
0
ITEM: NUMBER OF ATOMS
192
ITEM: BOX BOUNDS pp pp pp
0.0000000000000000e+00 1.2464485979498011e+01
0.0000000000000000e+00 1.2464485979498011e+01
0.0000000000000000e+00 1.2443717891802279e+01
ITEM: ATOMS id type xs ys zs
1 1 0.546015 0.669899 0.614913
2 2 0.49897 0.729623 0.58925
3 2 0.539861 0.663328 0.694767
4 1 0.874924 0.256643 0.389014
5 2 0.906565 0.232835 0.319123
6 2 0.93313 0.263573 0.443883
7 1 0.117621 0.193107 0.327126
8 2 0.140492 0.159063 0.396194
9 2 0.179473 0.194211 0.275956
10 1 0.753673 0.181534 0.835444
11 2 0.827577 0.162056 0.811005
12 2 0.728899 0.128706 0.890599
13 1 0.202727 0.962059 0.0367507
14 2 0.24149 0.948816 0.967653
15 2 0.230701 0.0291571 0.0707455
16 1 0.10929 0.598525 0.859779
17 2 0.144295 0.530874 0.885012
18 2 0.030833 0.585645 0.849031
19 1 0.759395 0.91103 0.414646
20 2 0.681171 0.921923 0.400521
21 2 0.790452 0.86361 0.357777
22 1 0.769429 0.769192 0.243025
23 2 0.722909 0.7043 0.250875
24 2 0.821567 0.757646 0.183051
25 1 0.444313 0.788302 0.164421
26 2 0.421469 0.718845 0.197497
27 2 0.484559 0.831701 0.218671
28 1 0.28889 0.686018 0.777777
29 2 0.225272 0.647716 0.808196
30 2 0.286561 0.68238 0.697532
31 1 0.314197 0.965589 0.344941
32 2 0.270063 0.90376 0.319093
33 2 0.333485 0.0124709 0.282655
34 1 0.635731 0.184053 0.648033
35 2 0.668595 0.129327 0.599356
36 2 0.67699 0.186989 0.716891
37 1 0.537674 0.19201 0.377947
38 2 0.49408 0.233815 0.430841
39 2 0.61473 0.19285 0.400305
40 1 0.457615 0.506756 0.937701
41 2 0.495492 0.572339 0.911187
42 2 0.497256 0.441359 0.913402
43 1 0.952386 0.0884318 0.732956
44 2 0.910839 0.0312341 0.694961
45 2 0.030812 0.0722708 0.727974
46 1 0.048579 0.624077 0.381468
47 2 0.0181355 0.693432 0.354972
48 2 0.026581 0.612585 0.457888
49 1 0.0254544 0.848121 0.638115
50 2 0.993241 0.774645 0.638193
51 2 0.0224702 0.878549 0.563817
52 1 0.361141 0.269712 0.513152
53 2 0.354138 0.349448 0.507702
54 2 0.290846 0.235414 0.495269
55 1 0.305457 0.890333 0.853652
56 2 0.378209 0.895811 0.887078
57 2 0.293189 0.815161 0.828406
58 1 0.546403 0.989107 0.332764
59 2 0.473467 0.959661 0.348593
60 2 0.552815 0.0627782 0.363927
61 1 0.600597 0.340503 0.916125
62 2 0.586629 0.271506 0.877578
63 2 0.649045 0.326934 0.978721
64 1 0.148685 0.173713 0.537458
65 2 0.0807527 0.213209 0.553666
66 2 0.16793 0.126972 0.599863
67 1 0.715622 0.975209 0.173937
68 2 0.654287 0.985874 0.224626
69 2 0.743559 0.900352 0.181191
70 1 0.89676 0.554589 0.815908
71 2 0.833941 0.596905 0.842404
72 2 0.914812 0.497386 0.869274
73 1 0.635101 0.0740838 0.0083127
74 2 0.670697 0.0374673 0.0702925
75 2 0.59536 0.138597 0.0347235
76 1 0.926715 0.720373 0.0842714
77 2 0.00689833 0.720705 0.0869246
78 2 0.902454 0.726207 0.00789539
79 1 0.208289 0.791721 0.247813
80 2 0.215847 0.719362 0.281687
81 2 0.201544 0.783501 0.16816
82 1 0.428824 0.131658 0.650991
83 2 0.40437 0.183392 0.594665
84 2 0.502339 0.15198 0.675912
85 1 0.967399 0.256527 0.581097
86 2 0.941179 0.18984 0.617238
87 2 0.923988 0.319235 0.606033
88 1 0.496231 0.885024 0.956408
89 2 0.544314 0.947242 0.972355
90 2 0.476523 0.848239 0.0250421
91 1 0.228722 0.466707 0.152581
92 2 0.152691 0.491009 0.160673
93 2 0.246713 0.460626 0.074503
94 1 0.759603 0.44381 0.440244
95 2 0.794067 0.372391 0.428055
96 2 0.784911 0.474166 0.510178
97 1 0.728321 0.113386 0.450507
98 2 0.756458 0.0384194 0.455502
99 2 0.786825 0.162304 0.425549
100 1 0.989685 0.167343 0.934305
101 2 0.965319 0.242635 0.947513
102 2 0.971439 0.146111 0.858994
103 1 0.153213 0.400658 0.65723
104 2 0.199897 0.440968 0.605839
105 2 0.0787404 0.396144 0.627685
106 1 0.318643 0.483327 0.510771
107 2 0.397796 0.489822 0.522148
108 2 0.299324 0.513779 0.438985
109 1 0.438157 0.80579 0.475774
110 2 0.380127 0.847292 0.439016
111 2 0.489348 0.856662 0.510876
112 1 0.245657 0.447821 0.934645
113 2 0.24058 0.369663 0.917236
114 2 0.322741 0.470036 0.935661
115 1 0.882145 0.137792 0.173993
116 2 0.825958 0.0811027 0.182121
117 2 0.95373 0.103164 0.163345
118 1 0.249688 0.586236 0.325439
119 2 0.246987 0.54229 0.25826
120 2 0.175261 0.596927 0.353466
121 1 0.0591991 0.00585677 0.214002
122 2 0.11396 0.957523 0.180756
123 2 0.0961357 0.0669121 0.25073
124 1 0.777043 0.915566 0.897688
125 2 0.841261 0.929381 0.943828
126 2 0.712308 0.948911 0.931418
127 1 0.58184 0.448615 0.130528
128 2 0.610917 0.49925 0.18564
129 2 0.537655 0.489362 0.0772993
130 1 0.465177 0.644516 0.322414
131 2 0.394561 0.606803 0.317153
132 2 0.45828 0.707454 0.371769
133 1 0.78413 0.37984 0.689165
134 2 0.719289 0.334432 0.676095
135 2 0.806957 0.372492 0.765853
136 1 0.536909 0.484763 0.505374
137 2 0.565397 0.548593 0.544819
138 2 0.596983 0.448104 0.466791
139 1 0.731155 0.707014 0.871538
140 2 0.65937 0.70001 0.836345
141 2 0.743703 0.78365 0.891719
142 1 0.745806 0.282235 0.0748694
143 2 0.700325 0.280227 0.14104
144 2 0.808888 0.233579 0.0843613
145 1 0.292663 0.178247 0.199336
146 2 0.252247 0.203798 0.134806
147 2 0.367484 0.207119 0.197145
148 1 0.267621 0.254832 0.780572
149 2 0.218119 0.302764 0.73941
150 2 0.305097 0.205267 0.729739
151 1 0.97163 0.479663 0.116545
152 2 0.949807 0.458492 0.190913
153 2 0.945621 0.55399 0.101173
154 1 0.550321 0.959573 0.600064
155 2 0.504072 0.0210352 0.622905
156 2 0.615821 0.956798 0.646385
157 1 0.744817 0.69487 0.543784
158 2 0.756383 0.751261 0.487809
159 2 0.666113 0.684104 0.555041
160 1 0.536881 0.218071 0.161082
161 2 0.537846 0.294546 0.13681
162 2 0.528934 0.215399 0.241003
163 1 0.148292 0.742146 0.0357629
164 2 0.17833 0.816258 0.0293037
165 2 0.155924 0.704 0.96548
166 1 0.672326 0.569443 0.3009
167 2 0.598419 0.580704 0.330059
168 2 0.70943 0.512443 0.343526
169 1 0.786457 0.919465 0.67562
170 2 0.77629 0.84516 0.647079
171 2 0.793741 0.916721 0.755603
172 1 0.513518 0.712014 0.821413
173 2 0.516862 0.769561 0.877308
174 2 0.43691 0.692651 0.807503
175 1 0.00338069 0.930047 0.438368
176 2 0.0317284 0.951296 0.366266
177 2 0.923681 0.939169 0.43948
178 1 0.962116 0.952717 0.994852
179 2 0.957499 0.0299049 0.973435
180 2 0.0373071 0.935538 0.0169744
181 1 0.886526 0.369257 0.942451
182 2 0.916138 0.397833 0.0114356
183 2 0.812094 0.341915 0.954668
184 1 0.929284 0.611897 0.609123
185 2 0.924179 0.588434 0.685801
186 2 0.857098 0.635904 0.583599
187 1 0.189592 0.00741421 0.705813
188 2 0.252721 0.993512 0.753409
189 2 0.142328 0.942599 0.704491
190 1 0.223431 0.194923 0.989453
191 2 0.257589 0.219035 0.920868
192 2 0.146177 0.177802 0.976195
ITEM: TIMESTEP
1000
ITEM: NUMBER OF ATOMS
192
ITEM: BOX BOUNDS pp pp pp
0.0000000000000000e+00 1.2458529674213183e+01
0.0000000000000000e+00 1.2458529674213183e+01
0.0000000000000000e+00 1.2437771510799219e+01
ITEM: ATOMS id type xs ys zs
1 1 0.547261 0.571412 0.586336
2 2 0.486798 0.580763 0.534304
3 2 0.542398 0.627596 0.643538
4 1 0.871951 0.246675 0.3664
5 2 0.845513 0.22831 0.292757
6 2 0.939949 0.206671 0.381169
7 1 0.0972935 0.142547 0.400605
8 2 0.118926 0.136627 0.477795
9 2 0.156419 0.177168 0.358737
10 1 0.574185 0.230333 0.901462
11 2 0.62665 0.254749 0.957168
12 2 0.53537 0.1653 0.928069
13 1 0.213531 1.0011 0.959767
14 2 0.24432 0.990203 0.886332
15 2 0.248165 0.0648332 0.99418
16 1 0.176 0.638356 0.818377
17 2 0.224105 0.580934 0.847237
18 2 0.100016 0.612527 0.819249
19 1 0.733824 0.83864 0.387458
20 2 0.667422 0.882407 0.376639
21 2 0.733751 0.776837 0.336168
22 1 0.768132 0.732594 0.179773
23 2 0.754503 0.660743 0.212892
24 2 0.844137 0.73632 0.154221
25 1 0.468816 0.697021 0.146858
26 2 0.524941 0.723333 0.197924
27 2 0.398905 0.689552 0.185628
28 1 0.268665 0.736721 0.65478
29 2 0.2232 0.71592 0.717668
30 2 0.225619 0.782025 0.604336
31 1 0.277178 0.954523 0.336728
32 2 0.225958 0.932638 0.278846
33 2 0.292065 0.0331735 0.330891
34 1 0.720096 0.40688 0.722739
35 2 0.716754 0.375964 0.648626
36 2 0.70045 0.350383 0.776341
37 1 0.555465 0.142763 0.431682
38 2 0.498247 0.186872 0.466699
39 2 0.626698 0.160992 0.463907
40 1 0.576706 0.515685 0.0483668
41 2 0.549471 0.589288 0.0651991
42 2 0.588346 0.508885 0.969116
43 1 0.808918 0.0616802 0.657336
44 2 0.749424 1.01075 0.639763
45 2 0.871994 0.020576 0.685191
46 1 0.0240846 0.621691 0.385448
47 2 0.00901975 0.699909 0.375612
48 2 0.0256191 0.604374 0.463932
49 1 0.17809 0.840587 0.489872
50 2 0.120494 0.812914 0.441229
51 2 0.222627 0.894528 0.450459
52 1 0.344236 0.173116 0.494052
53 2 0.317067 0.230134 0.444448
54 2 0.282159 0.136992 0.529931
55 1 0.272165 0.95367 0.741893
56 2 0.337051 0.964871 0.695926
57 2 0.257065 0.875093 0.748159
58 1 0.576683 0.95844 0.335843
59 2 0.51057 0.923647 0.365216
60 2 0.573675 0.0374546 0.349619
61 1 0.612753 0.576658 0.826482
62 2 0.556589 0.621454 0.790642
63 2 0.639331 0.521016 0.775023
64 1 0.16042 0.0976105 0.596059
65 2 0.10301 0.143789 0.627941
66 2 0.193919 0.0529961 0.653851
67 1 0.652958 0.904355 0.134381
68 2 0.631773 0.91786 0.210734
69 2 0.702956 0.841653 0.131213
70 1 0.946595 0.596282 0.83855
71 2 0.888406 0.649447 0.853712
72 2 0.9346 0.530241 0.882626
73 1 0.51564 0.0504255 0.0226207
74 2 0.557473 -0.0054528 0.062299
75 2 0.495947 0.109773 0.0730187
76 1 0.977803 0.723466 0.0556994
77 2 0.0471518 0.755751 0.0313689
78 2 0.919093 0.745331 1.00545
79 1 0.242877 0.73723 0.205609
80 2 0.222227 0.664583 0.232811
81 2 0.224456 0.742896 0.127569
82 1 0.520048 0.156297 0.679874
83 2 0.449777 0.194602 0.673843
84 2 0.560275 0.184051 0.743643
85 1 0.985815 0.230833 0.669286
86 2 0.930594 0.172659 0.672092
87 2 0.950812 0.29996 0.648332
88 1 0.433036 0.847086 0.962104
89 2 0.451734 0.923771 0.976667
90 2 0.434209 0.80576 0.0310104
91 1 0.220228 0.425796 0.143555
92 2 0.216935 0.349595 0.118532
93 2 0.257729 0.470435 0.088303
94 1 0.800314 0.473299 0.433342
95 2 0.833117 0.406965 0.402222
96 2 0.838412 0.492692 0.501381
97 1 0.746478 0.237151 0.550669
98 2 0.7758 0.183412 0.602658
99 2 0.787795 0.233297 0.481856
100 1 0.0409757 0.246775 0.90601
101 2 0.992404 0.300909 0.940004
102 2 0.0295453 0.246661 0.826437
103 1 0.403424 0.327825 0.654351
104 2 0.473212 0.334058 0.615141
105 2 0.358578 0.270721 0.620098
106 1 0.321551 0.347854 0.362215
107 2 0.382313 0.371008 0.315091
108 2 0.273531 0.410516 0.376696
109 1 0.434292 0.827375 0.437425
110 2 0.374173 0.857883 0.393803
111 2 0.429606 0.855081 0.51273
112 1 0.310607 0.531399 0.970369
113 2 0.360065 0.479812 0.933782
114 2 0.346684 0.602765 -0.022782
115 1 0.820942 0.110334 0.161228
116 2 0.77126 0.0478275 0.169373
117 2 0.891149 0.0850371 0.13164
118 1 0.226987 0.535307 0.314827
119 2 0.220754 0.486213 0.251536
120 2 0.155335 0.542537 0.350316
121 1 0.0486942 0.978615 0.266743
122 2 0.0410136 0.0146583 0.195326
123 2 0.0711249 0.0326018 0.321824
124 1 0.684305 0.916849 0.884142
125 2 0.671634 -0.00806277 0.858748
126 2 0.677314 0.914054 0.96418
127 1 0.508992 0.428956 0.238775
128 2 0.528449 0.48341 0.294524
129 2 0.529451 0.456409 0.166064
130 1 0.421431 0.622293 0.409399
131 2 0.352411 0.603127 0.373139
132 2 0.421424 0.70053 0.42733
133 1 0.908671 0.443547 0.620422
134 2 0.860843 0.43716 0.684664
135 2 0.955549 0.508209 0.628356
136 1 0.57148 0.368307 0.490888
137 2 0.577539 0.441253 0.523861
138 2 0.643269 0.332436 0.491943
139 1 0.789584 0.719372 0.885694
140 2 0.734218 0.662189 0.87537
141 2 0.759514 0.790165 0.862728
142 1 0.712846 0.303488 0.0666114
143 2 0.669069 0.358266 0.105721
144 2 0.723729 0.23942 0.113788
145 1 0.250566 0.173773 0.252051
146 2 0.244884 0.172497 0.17187
147 2 0.273681 0.246782 0.276108
148 1 0.378565 0.336217 0.882185
149 2 0.377896 0.352443 0.803456
150 2 0.450327 0.306787 0.90285
151 1 0.957416 0.511932 0.160446
152 2 0.970445 0.52187 0.239146
153 2 0.986197 0.575216 0.120275
154 1 0.456409 0.951354 0.604666
155 2 0.46877 0.0306531 0.605227
156 2 0.520999 0.914002 0.634287
157 1 0.77128 0.725989 0.568728
158 2 0.768302 0.781352 0.5106
159 2 0.710095 0.674784 0.559999
160 1 0.516611 0.198799 0.20254
161 2 0.508511 0.277403 0.21661
162 2 0.515513 0.158926 0.272301
163 1 0.182652 0.760949 -0.0016407
164 2 0.212172 0.83145 0.973832
165 2 0.172129 0.71288 0.934849
166 1 0.662973 0.615532 0.374962
167 2 0.58593 0.597642 0.388616
168 2 0.709671 0.55816 0.406147
169 1 0.649308 0.869531 0.684363
170 2 0.69131 0.811082 0.648791
171 2 0.669096 0.87328 0.762183
172 1 0.465906 0.720746 0.760552
173 2 0.464357 0.76778 0.825676
174 2 0.397006 0.728665 0.720092
175 1 0.952761 0.818882 0.364393
176 2 0.981079 0.876355 0.315976
177 2 0.874351 0.830635 0.376871
178 1 0.0381808 0.0646242 0.0664565
179 2 0.008628 0.120885 0.0173559
180 2 0.0827744 0.0130225 0.0240755
181 1 0.884333 0.402582 0.976451
182 2 0.91619 0.440583 0.0396641
183 2 0.81305 0.371888 0.99693
184 1 0.98689 0.646633 0.619118
185 2 0.98871 0.624069 0.696247
186 2 0.912375 0.669174 0.599569
187 1 0.987033 0.917221 0.724378
188 2 0.0374356 0.877772 0.772883
189 2 0.00445117 0.900066 0.647806
190 1 0.228316 0.216591 0.0139584
191 2 0.277616 0.244746 0.957134
192 2 0.157445 0.198198 0.981033
ITEM: TIMESTEP
2000
ITEM: NUMBER OF ATOMS
192
ITEM: BOX BOUNDS pp pp pp
0.0000000000000000e+00 1.2529318762864833e+01
0.0000000000000000e+00 1.2529318762864833e+01
0.0000000000000000e+00 1.2508442652027856e+01
ITEM: ATOMS id type xs ys zs
1 1 0.556259 0.647247 0.600318
2 2 0.505729 0.66084 0.539935
3 2 0.52199 0.668763 0.669242
4 1 0.800218 0.273664 0.283166
5 2 0.783479 0.236479 0.214428
6 2 0.867953 0.244284 0.313564
7 1 0.980997 0.161254 0.354723
8 2 0.9986 0.160591 0.432711
9 2 0.0480071 0.170639 0.312302
10 1 0.590083 0.122789 0.804817
11 2 0.622343 0.13974 0.875957
12 2 0.61958 0.0536219 0.777977
13 1 0.184864 0.958947 0.960942
14 2 0.228968 0.952312 0.894627
15 2 0.216402 0.0148206 1.00851
16 1 0.220435 0.507269 0.791526
17 2 0.252346 0.508477 0.864808
18 2 0.141397 0.517128 0.796817
19 1 0.725438 0.91411 0.518907
20 2 0.76146 0.985256 0.515318
21 2 0.662206 0.913819 0.470106
22 1 0.803742 0.737341 0.121988
23 2 0.783656 0.687785 0.181356
24 2 0.86904 0.709798 0.0851909
25 1 0.516872 0.723882 0.219449
26 2 0.576187 0.721727 0.272916
27 2 0.447672 0.736827 0.25714
28 1 0.255819 0.704832 0.711278
29 2 0.250706 0.630179 0.739125
30 2 0.201886 0.715419 0.653292
31 1 0.185209 0.908985 0.358618
32 2 0.225372 0.874635 0.298692
33 2 0.12331 0.949845 0.329056
34 1 0.699424 0.432908 0.826455
35 2 0.640625 0.411854 0.776659
36 2 0.712386 0.374036 0.878869
37 1 0.491297 0.237545 0.343103
38 2 0.438597 0.295133 0.326391
39 2 0.565316 0.267082 0.338544
40 1 0.555471 0.581533 0.0288771
41 2 0.563956 0.626351 0.0944954
42 2 0.608285 0.604773 0.973624
43 1 0.876091 0.0100287 0.714107
44 2 0.82976 0.949137 0.736897
45 2 0.948933 0.982769 0.696102
46 1 0.0265053 0.597445 0.379668
47 2 1.00152 0.672077 0.366304
48 2 0.983527 0.565148 0.438774
49 1 0.129262 0.76043 0.540342
50 2 0.0662324 0.723082 0.508595
51 2 0.160642 0.810156 0.486264
52 1 0.325841 0.2354 0.514206
53 2 0.39142 0.241043 0.468968
54 2 0.261073 0.240589 0.467757
55 1 0.261324 0.927263 0.766132
56 2 0.32125 0.969504 0.734509
57 2 0.272462 0.849721 0.750772
58 1 0.576136 0.989904 0.362439
59 2 0.503087 0.96731 0.385399
60 2 0.579585 0.0695939 0.359315
61 1 0.680421 0.664691 0.86089
62 2 0.610146 0.702541 0.859973
63 2 0.670833 0.590124 0.834015
64 1 0.0207867 0.137537 0.552036
65 2 0.0324782 0.184822 0.615384
66 2 0.0416502 0.0627371 0.570553
67 1 0.706236 0.927398 0.168304
68 2 0.663677 0.941576 0.234442
69 2 0.71928 0.848949 0.161379
70 1 1.00124 0.523929 0.794817
71 2 0.968652 0.590401 0.824728
72 2 0.999474 0.466307 0.850125
73 1 0.537567 0.984674 0.00983079
74 2 0.598814 0.950617 0.0481191
75 2 0.518605 0.0533485 0.0458962
76 1 0.0214517 0.701537 0.0478829
77 2 0.0997424 0.714808 0.0397133
78 2 0.987776 0.695821 0.975614
79 1 0.280095 0.761745 0.226598
80 2 0.24255 0.700884 0.262131
81 2 0.257028 0.766413 0.150193
82 1 0.548213 0.3241 0.714693
83 2 0.468757 0.331101 0.717839
84 2 0.570361 0.25615 0.750311
85 1 0.96497 0.198162 0.75456
86 2 0.928722 0.127231 0.75977
87 2 0.91815 0.249114 0.714696
88 1 0.440965 0.795393 1.00068
89 2 0.463638 0.870895 1.01325
90 2 0.454347 0.752299 0.0666334
91 1 0.209389 0.477294 0.146326
92 2 0.148899 0.512697 0.108058
93 2 0.27387 0.476699 0.0991958
94 1 0.662153 0.419785 0.317661
95 2 0.725063 0.376593 0.294196
96 2 0.649578 0.408342 0.395784
97 1 0.7747 0.141026 0.53997
98 2 0.793832 0.110126 0.611161
99 2 0.829749 0.194747 0.518588
100 1 0.0912321 0.265154 0.928158
101 2 0.0820215 0.33993 0.95458
102 2 0.059079 0.258455 0.855281
103 1 0.334118 0.323684 0.715604
104 2 0.294504 0.390645 0.733496
105 2 0.322636 0.30569 0.638557
106 1 0.326036 0.354413 0.285182
107 2 0.333803 0.425938 0.319821
108 2 0.290255 0.362861 0.214209
109 1 0.38904 0.945744 0.43633
110 2 0.316669 0.936929 0.403767
111 2 0.383345 0.990442 0.502332
112 1 0.368454 0.454506 1.00266
113 2 0.387905 0.389862 0.959985
114 2 0.433775 0.483673 1.03814
115 1 0.808863 0.124213 0.117194
116 2 0.752334 0.0695657 0.13101
117 2 0.870419 0.0899328 0.0796095
118 1 0.217908 0.565758 0.342309
119 2 0.206382 0.527384 0.273153
120 2 0.150645 0.564036 0.385331
121 1 0.986174 0.951525 0.275304
122 2 -0.0135781 0.941178 0.19602
123 2 0.970758 0.0280276 0.292117
124 1 0.831406 0.904084 0.908755
125 2 0.862102 0.977191 0.918004
126 2 0.772961 0.892853 0.962042
127 1 0.615182 0.396987 0.0976295
128 2 0.6093 0.419564 0.174097
129 2 0.595337 0.458063 0.0501371
130 1 0.413596 0.713744 0.458892
131 2 0.362931 0.655133 0.439626
132 2 0.381223 0.784196 0.439872
133 1 0.845965 0.352158 0.670551
134 2 0.800191 0.384641 0.727405
135 2 0.854391 0.403873 0.610229
136 1 0.636777 0.440366 0.539988
137 2 0.61103 0.510222 0.568833
138 2 0.624042 0.382997 0.594103
139 1 0.888405 0.697091 0.859461
140 2 0.812454 0.677152 0.873837
141 2 0.897192 0.776011 0.867633
142 1 0.742922 0.275228 0.989378
143 2 0.700492 0.326909 0.0330497
144 2 0.761409 0.21167 0.03407
145 1 0.163003 0.189525 0.255643
146 2 0.182328 0.189531 0.178063
147 2 0.20855 0.242372 0.294499
148 1 0.422863 0.262005 0.901856
149 2 0.382736 0.246618 0.834475
150 2 0.473322 0.202045 0.91707
151 1 0.949244 0.536939 0.176079
152 2 0.954507 0.545072 0.255447
153 2 0.978144 0.602368 0.14058
154 1 0.386483 0.0549558 0.616767
155 2 0.342221 0.117935 0.595599
156 2 0.460551 0.0791201 0.634179
157 1 0.766306 0.695544 0.555427
158 2 0.758424 0.774586 0.563336
159 2 0.700264 0.659433 0.582053
160 1 0.540018 0.182254 0.103972
161 2 0.571978 0.255327 0.100638
162 2 0.48996 0.177908 0.166103
163 1 0.222502 0.755908 0.0114234
164 2 0.189927 0.824305 0.986224
165 2 0.302021 0.762876 1.01183
166 1 0.732482 0.655949 0.325837
167 2 0.767608 0.675147 0.395015
168 2 0.69367 0.586683 0.334092
169 1 0.612572 0.912438 0.697608
170 2 0.663858 0.908023 0.636495
171 2 0.580176 0.84061 0.710407
172 1 0.472291 0.723456 0.791478
173 2 0.460038 0.755721 0.863577
174 2 0.402503 0.715933 0.7534
175 1 0.911155 0.797832 0.39636
176 2 0.934602 0.84607 0.337138
177 2 0.847086 0.829032 0.43239
178 1 0.990268 0.0630535 0.982675
179 2 0.0129973 0.133186 0.952014
180 2 0.0453783 0.00770993 0.966155
181 1 0.955831 0.413476 0.0110083
182 2 0.961952 0.445896 0.083818
183 2 0.892224 0.365305 0.00862548
184 1 0.917581 0.534904 0.575586
185 2 0.947514 0.530537 0.649581
186 2 0.866113 0.59577 0.571281
187 1 0.073885 0.950747 0.65484
188 2 0.143492 0.966408 0.690701
189 2 0.065965 0.871877 0.6454
190 1 0.227773 0.17383 0.0543605
191 2 0.297804 0.184363 0.0174654
192 2 0.16955 0.206642 0.0106343
ITEM: TIMESTEP
3000
ITEM: NUMBER OF ATOMS
192
ITEM: BOX BOUNDS pp pp pp
0.0000000000000000e+00 1.2530877293162009e+01
0.0000000000000000e+00 1.2530877293162009e+01
0.0000000000000000e+00 1.2509998585531697e+01
ITEM: ATOMS id type xs ys zs
1 1 0.542226 0.684637 0.54004
2 2 0.484486 0.714622 0.493728
3 2 0.510479 0.657672 0.608241
4 1 0.803963 0.233105 0.293447
5 2 0.878666 0.214578 0.314625
6 2 0.788893 0.203932 0.220575
7 1 0.996659 0.158535 0.370836
8 2 0.991302 0.170516 0.449699
9 2 0.0675134 0.184415 0.344704
10 1 0.633399 0.123461 0.856777
11 2 0.699397 0.132515 0.900817
12 2 0.587675 0.0664425 0.88891
13 1 0.215757 0.972923 0.907604
14 2 0.255222 0.965773 0.83848
15 2 0.265281 1.00039 0.963945
16 1 0.187042 0.467132 0.824757
17 2 0.222802 0.428195 0.884656
18 2 0.110174 0.445898 0.821382
19 1 0.744911 0.951679 0.42409
20 2 0.755004 1.00517 0.482561
21 2 0.684678 0.974687 0.376964
22 1 0.806019 0.860719 0.120506
23 2 0.778167 0.829932 0.18879
24 2 0.874888 0.898536 0.134596
25 1 0.56349 0.760945 0.120118
26 2 0.621847 0.747318 0.172927
27 2 0.500822 0.793229 0.157615
28 1 0.28597 0.648541 0.75208
29 2 0.237699 0.589001 0.774383
30 2 0.259206 0.68044 0.683871
31 1 0.375701 0.927493 0.207862
32 2 0.329169 0.8638 0.19564
33 2 0.358143 0.983934 0.154136
34 1 0.682884 0.369277 0.773729
35 2 0.635855 0.314659 0.739379
36 2 0.682675 0.358665 0.85297
37 1 0.502231 0.224323 0.432772
38 2 0.440082 0.272397 0.446841
39 2 0.566837 0.268362 0.416701
40 1 0.495961 0.548784 0.0453235
41 2 0.511829 0.620196 0.0773052
42 2 0.480369 0.557305 0.967379
43 1 0.871071 0.0264828 0.788562
44 2 0.836635 0.972109 0.835848
45 2 0.934157 0.993916 0.752027
46 1 0.0526915 0.666411 0.450836
47 2 0.0420297 0.745229 0.444129
48 2 1.01219 0.639362 0.514176
49 1 0.210549 0.759173 0.581604
50 2 0.166483 0.702406 0.546811
51 2 0.224057 0.818031 0.529324
52 1 0.267103 0.221603 0.544929
53 2 0.277755 0.243811 0.46888
54 2 0.190289 0.203461 0.556834
55 1 0.304513 0.940532 0.730388
56 2 0.341844 0.979161 0.671255
57 2 0.292131 0.864669 0.708851
58 1 0.559408 0.0041706 0.340535
59 2 0.494787 0.977477 0.301968
60 2 0.538279 0.062597 0.390726
61 1 0.69597 0.581812 0.764864
62 2 0.62122 0.609799 0.764598
63 2 0.694631 0.5023 0.758011
64 1 0.0402662 0.155277 0.605038
65 2 0.0669196 0.196069 0.668361
66 2 0.0331742 0.0781243 0.624254
67 1 0.63867 0.0428391 0.130564
68 2 0.613134 0.0369485 0.206083
69 2 0.657856 0.970343 0.103187
70 1 0.966158 0.472148 0.860008
71 2 0.93163 0.543948 0.864848
72 2 0.930311 0.429165 0.803007
73 1 0.49059 0.00997258 0.965454
74 2 0.516256 0.000582395 0.0405722
75 2 0.464084 0.0846066 0.955539
76 1 0.000198762 0.642576 0.0500667
77 2 0.064017 0.656039 0.00398114
78 2 0.933732 0.655616 0.00777078
79 1 0.25544 0.748852 0.163385
80 2 0.221214 0.694423 0.21076
81 2 0.248692 0.725933 0.0871005
82 1 0.571912 0.200704 0.671964
83 2 0.497106 0.228342 0.668641
84 2 0.583707 0.1642 0.742075
85 1 0.976078 0.194205 0.820994
86 2 0.928343 0.130881 0.811909
87 2 0.944218 0.257111 0.783534
88 1 0.573823 0.794429 0.916091
89 2 0.534958 0.86261 0.90152
90 2 0.569056 0.777162 0.994003
91 1 0.184956 0.42004 0.178331
92 2 0.106288 0.413588 0.166456
93 2 0.222193 0.424583 0.107761
94 1 0.639011 0.379599 0.342683
95 2 0.701804 0.334846 0.322032
96 2 0.662355 0.436225 0.393948
97 1 0.717574 0.0738418 0.593572
98 2 0.745392 0.0542303 0.665889
99 2 0.680121 0.144206 0.597711
100 1 0.0970886 0.244348 0.00275645
101 2 0.0501435 0.266395 0.0635285
102 2 0.0544263 0.24278 0.935203
103 1 0.358738 0.27374 0.73233
104 2 0.338052 0.350323 0.74118
105 2 0.313512 0.240332 0.675585
106 1 0.383125 0.400694 0.421087
107 2 0.458319 0.426311 0.413296
108 2 0.332893 0.458143 0.397657
109 1 0.249291 0.903815 0.421353
110 2 0.182265 0.941098 0.399221
111 2 0.294583 0.953664 0.464256
112 1 0.32758 0.39793 0.998372
113 2 0.355524 0.327627 0.972885
114 2 0.387384 0.440624 0.0295941
115 1 0.814576 0.131085 0.0685249
116 2 0.743492 0.0994875 0.0864315
117 2 0.869868 0.073525 0.0678606
118 1 0.224083 0.592046 0.313876
119 2 0.218242 0.523553 0.273245
120 2 0.155437 0.606313 0.352084
121 1 0.956571 0.997985 0.219339
122 2 -0.00400912 0.00536321 0.150213
123 2 0.973287 0.0603072 0.266399
124 1 0.784409 0.864775 0.920023
125 2 0.709689 0.845062 0.900011
126 2 0.794851 0.853534 0.998483
127 1 0.572246 0.384266 0.141755
128 2 0.597746 0.409474 0.213185
129 2 0.550174 0.447042 0.0976054
130 1 0.402121 0.749035 0.390611
131 2 0.37091 0.690625 0.345984
132 2 0.369217 0.81875 0.36989
133 1 0.879482 0.356217 0.693186
134 2 0.803852 0.366831 0.716426
135 2 0.881559 0.342942 0.614376
136 1 0.683876 0.513482 0.50192
137 2 0.632457 0.574331 0.506865
138 2 0.75807 0.540296 0.514071
139 1 0.878182 0.685845 0.83329
140 2 0.812648 0.647372 0.808836
141 2 0.857073 0.75162 0.873343
142 1 0.694452 0.324568 0.985924
143 2 0.648901 0.346462 0.0478059
144 2 0.754729 0.279242 0.0121023
145 1 0.197346 0.229351 0.306291
146 2 0.260702 0.192489 0.274645
147 2 0.192636 0.303612 0.277365
148 1 0.451661 0.226473 0.942857
149 2 0.423063 0.225002 0.868229
150 2 0.531078 0.234169 0.940718
151 1 0.920362 0.604674 0.245889
152 2 0.971004 0.627505 0.303299
153 2 0.951209 0.622529 0.174352
154 1 0.392908 0.0370269 0.55272
155 2 0.390769 0.114592 0.533982
156 2 0.463065 0.0197666 0.586701
157 1 0.739265 0.751323 0.477561
158 2 0.742735 0.82943 0.461469
159 2 0.668658 0.734056 0.51059
160 1 0.414463 0.221218 0.214053
161 2 0.475545 0.264286 0.18599
162 2 0.432814 0.192953 0.286528
163 1 0.204888 0.749387 0.943415
164 2 0.196814 0.826548 0.924625
165 2 0.238293 0.710491 0.88214
166 1 0.724311 0.726782 0.273245
167 2 0.731919 0.741959 0.351366
168 2 0.776414 0.670192 0.251912
169 1 0.565556 0.918338 0.632626
170 2 0.626571 0.967688 0.618022
171 2 0.592957 0.843801 0.640658
172 1 0.493959 0.68038 0.75925
173 2 0.514398 0.732664 0.816084
174 2 0.414763 0.670439 0.759514
175 1 0.955418 0.859847 0.406205
176 2 0.98767 0.882651 0.33673
177 2 0.893357 0.906981 0.423488
178 1 0.0256935 0.0246265 1.00092
179 2 0.0270165 0.0999982 0.974643
180 2 0.0933776 0.987935 0.979826
181 1 0.966526 0.356116 0.124697
182 2 0.912172 0.360634 0.183071
183 2 0.950479 0.411027 0.0689429
184 1 0.900067 0.628621 0.602842
185 2 0.884731 0.636974 0.680856
186 2 0.855932 0.680569 0.561247
187 1 0.0604246 0.939587 0.704538
188 2 0.124326 0.961734 0.746999
189 2 0.0738496 0.868169 0.671466
190 1 0.285048 0.105569 0.0804628
191 2 0.339436 0.154819 0.111934
192 2 0.223957 0.148199 0.0517542
ITEM: TIMESTEP
4000
ITEM: NUMBER OF ATOMS
192
ITEM: BOX BOUNDS pp pp pp
0.0000000000000000e+00 1.2708376042535544e+01
0.0000000000000000e+00 1.2708376042535544e+01
0.0000000000000000e+00 1.2687201589890275e+01
ITEM: ATOMS id type xs ys zs
1 1 0.578427 0.655798 0.575683
2 2 0.513167 0.683322 0.541339
3 2 0.562225 0.634618 0.64984
4 1 0.823788 0.285196 0.271786
5 2 0.873208 0.248035 0.320537
6 2 0.814602 0.242657 0.206116
7 1 0.981408 0.219894 0.412607
8 2 0.0214421 0.170228 0.458756
9 2 0.0291975 0.277548 0.388394
10 1 0.628857 0.0960777 0.821454
11 2 0.704904 0.0814732 0.835462
12 2 0.584566 0.0552583 0.872176
13 1 0.177323 0.957296 0.884657
14 2 0.248714 0.949212 0.852509
15 2 0.179877 0.935335 0.960303
16 1 0.188223 0.41025 0.886279
17 2 0.253246 0.440358 0.918855
18 2 0.14045 0.468743 0.864144
19 1 0.744893 0.900305 0.413498
20 2 0.77463 0.962246 0.451917
21 2 0.676693 0.920552 0.379811
22 1 0.798287 0.831931 0.0803251
23 2 0.74211 0.788189 0.11389
24 2 0.868963 0.804345 0.101242
25 1 0.565959 0.768353 0.164615
26 2 0.614495 0.706955 0.172792
27 2 0.494235 0.748688 0.19037
28 1 0.269674 0.653928 0.779577
29 2 0.223734 0.592669 0.761411
30 2 0.238589 0.719768 0.74968
31 1 0.346654 0.932082 0.259112
32 2 0.355455 0.856736 0.238159
33 2 0.302587 0.969205 0.205431
34 1 0.689712 0.434209 0.850085
35 2 0.650758 0.389543 0.798234
36 2 0.703607 0.392593 0.915517
37 1 0.479596 0.182282 0.339874
38 2 0.419563 0.213158 0.380375
39 2 0.54271 0.228724 0.347085
40 1 0.469777 0.484676 0.957579
41 2 0.48511 0.539456 0.903117
42 2 0.528134 0.483035 0.0104294
43 1 0.841975 0.0461123 0.791041
44 2 0.835717 0.967733 0.787929
45 2 0.895859 0.0660109 0.844914
46 1 0.0228595 0.636745 0.467925
47 2 0.995204 0.697378 0.426011
48 2 0.965065 0.584749 0.480123
49 1 0.146869 0.769314 0.595369
50 2 0.10112 0.720617 0.553734
51 2 0.187814 0.815163 0.54616
52 1 0.274159 0.18459 0.599284
53 2 0.322671 0.127386 0.575446
54 2 0.201021 0.156173 0.605236
55 1 0.390132 0.92543 0.803324
56 2 0.462454 0.913008 0.831785
57 2 0.394718 0.9433 0.7267
58 1 0.565807 0.993077 0.301788
59 2 0.513715 0.93715 0.320547
60 2 0.53176 0.063753 0.30795
61 1 0.689532 0.649865 0.805835
62 2 0.611485 0.658074 0.811613
63 2 0.709201 0.575107 0.820576
64 1 0.0640076 0.0942707 0.604785
65 2 0.0131517 0.142607 0.640472
66 2 0.0607874 0.0232781 0.638631
67 1 0.670508 0.991361 0.115082
68 2 0.644964 0.984243 0.189293
69 2 0.710774 0.926834 0.0948734
70 1 0.0209285 0.566042 0.806641
71 2 0.97915 0.627865 0.781607
72 2 0.98519 0.499539 0.784421
73 1 0.498199 0.0203979 0.0065625
74 2 0.558638 0.0193754 0.0570271
75 2 0.478313 0.0949187 0.990939
76 1 0.0889398 0.653455 0.0202507
77 2 0.140676 0.708387 0.997899
78 2 0.0568583 0.62022 0.95644
79 1 0.366428 0.727979 0.208353
80 2 0.347544 0.727542 0.131837
81 2 0.312244 0.687926 0.249064
82 1 0.588565 0.291408 0.742925
83 2 0.511708 0.306436 0.750635
84 2 0.602411 0.21594 0.760418
85 1 0.908125 0.221526 0.685661
86 2 0.851567 0.187952 0.728931
87 2 0.916149 0.296858 0.706975
88 1 0.516684 0.826049 0.964065
89 2 0.510209 0.902412 0.981951
90 2 0.540781 0.786228 0.0276193
91 1 0.153342 0.522804 0.162233
92 2 0.134666 0.580758 0.112304
93 2 0.22296 0.492215 0.141957
94 1 0.623552 0.33631 0.319735
95 2 0.699692 0.318608 0.310687
96 2 0.610293 0.357848 0.394374
97 1 0.831403 0.058637 0.548482
98 2 0.865656 0.127465 0.531675
99 2 0.848779 0.0380242 0.622532
100 1 0.0823902 0.262741 0.00860253
101 2 0.046827 0.307096 0.0630994
102 2 0.111362 0.308983 0.951812
103 1 0.363059 0.311922 0.769505
104 2 0.296281 0.33282 0.805565
105 2 0.346666 0.262705 0.710236
106 1 0.309318 0.278405 0.402876
107 2 0.295958 0.291905 0.479367
108 2 0.240737 0.275124 0.364367
109 1 0.288188 0.898137 0.471843
110 2 0.275366 0.904688 0.394353
111 2 0.348623 0.944148 0.492436
112 1 0.330979 0.430056 0.113152
113 2 0.34744 0.355864 0.1336
114 2 0.383041 0.45467 0.0594361
115 1 0.811576 0.141641 0.115379
116 2 0.751098 0.0929051 0.12802
117 2 0.853315 0.116224 0.0536003
118 1 0.211576 0.637902 0.34384
119 2 0.179667 0.598878 0.283315
120 2 0.160062 0.640928 0.403346
121 1 0.0480893 0.941743 0.1517
122 2 0.989529 0.951879 0.100037