LAMMPS data file via write_data, version 27 Oct 2021, timestep = 34000

192 atoms
2 atom types
128 bonds
1 bond types
64 angles
1 angle types

0 12.464485979498011 xlo xhi
0 12.464485979498011 ylo yhi
0 12.44371789180228 zlo zhi

Masses

1 15.9994
2 1.00794

Pair Coeffs # lj/cut/coul/long

1 0.15535 3.166
2 0 0

Bond Coeffs # harmonic

1 1000 1

Angle Coeffs # harmonic

1 100 109.47

Atoms # full

65 22 2 0.4236 1.0067211266509986 2.6574300349263846 6.889629074605814 0 0 1
7 3 1 -0.8472 1.4660957687334295 2.4069752177097854 4.07067111204818 0 0 1
8 3 2 0.4236 1.7511074748745505 1.9827215839971977 4.929933856700297 0 0 1
9 3 2 0.4236 2.236877129871038 2.420736386335321 3.434069212590247 0 0 1
112 38 1 -0.8472 3.0620012397325485 5.581845366311078 11.63045387816848 0 -1 0
113 38 2 0.4236 2.9987261524093256 4.607863362703815 11.41386568224032 0 -1 0
114 38 2 0.4236 4.022600430166867 5.858692712693575 11.64309811398558 0 -1 0
64 22 1 -0.8472 1.8532742321382647 2.165245677360271 6.687991799078137 0 0 1
147 49 2 0.4236 4.580295194366161 2.5815615118222426 2.4532065157102463 -1 -1 1
145 49 1 -0.8472 3.6479020702910674 2.2217621645670866 2.480464560881847 -1 -1 1
53 18 2 0.4236 4.414158376017358 4.355481563410345 6.3177151997135095 -1 1 0
54 18 2 0.4236 3.6254274075794912 2.93441904774427 6.163038424357973 -1 1 0
181 61 1 -0.8472 11.05008874707618 4.602597151214813 11.727602102332074 -2 -1 -1
182 61 2 0.4236 11.419102625658232 4.958700842118215 0.14212318025852902 -2 -1 0
115 39 1 -0.8472 10.995486614936217 1.7174943276646566 2.1651146298336967 2 1 1
52 18 1 -0.8472 4.501429480910513 3.361830541669003 6.385513426694563 -1 1 0
146 49 2 0.4236 3.1442404702340845 2.5401694013235185 1.6776588925039344 -1 -1 1
123 41 2 0.4236 1.1981937187677838 0.8338582482701498 3.1199106493562563 1 1 0
42 14 2 0.4236 6.19794755971372 5.501496728929424 11.366182229632862 1 -1 0
127 43 1 -0.8472 7.252340302517828 5.59177154738583 1.6242539473147752 -1 1 0
12 4 2 0.4236 9.08542470521517 1.6043907044822692 11.08221781412177 0 1 1
96 32 2 0.4236 9.783456795904742 5.910146981729574 6.3483261525672185 0 1 -1
183 61 2 0.4236 10.122534840613996 4.2618687859032764 11.879599246800574 -2 -1 -1
38 13 2 0.4236 6.158582925387022 2.9142742422880072 5.36113116604751 0 0 0
99 33 2 0.4236 9.807217278838523 2.0229003945116983 5.295475635957905 0 1 1
97 33 1 -0.8472 9.07816102813159 1.4132911012086011 5.6059752496607045 0 1 1
4 2 1 -0.8472 10.905490617404888 3.1989236841072164 4.840778249297973 0 -1 0
98 33 2 0.4236 9.428798458835535 0.4790815232632168 5.668120904891713 0 1 1
162 54 2 0.4236 6.5929109473754295 2.68485241594523 2.998767336732216 0 0 0
143 48 2 0.4236 8.729324890448353 3.4928873358143764 1.7548915078827094 0 0 1
74 25 2 0.4236 8.35979386483406 0.467116095215335 0.8745423416302686 0 1 1
39 13 2 0.4236 7.662082834949563 2.4037748350376753 4.981236162118868 0 0 0
161 54 2 0.4236 6.7039668126053105 3.6711632828063525 1.7025038520851943 0 0 0
160 54 1 -0.8472 6.69194239823725 2.7181512916896473 2.0044632436325065 0 0 0
144 48 2 0.4236 10.082206964843106 2.9115686842947883 1.0497539676101446 0 0 1
142 48 1 -0.8472 9.29609562557027 3.517902335007289 0.9316656032118886 0 0 1
37 13 1 -0.8472 6.701834594175589 2.39330953481155 4.7030814467602955 0 0 0
36 12 2 0.4236 8.43822754222377 2.3307038420139303 8.920601707339388 -1 1 0
75 25 2 0.4236 7.420968394994594 1.727365899482887 0.43202954394152354 0 1 1
117 39 2 0.4236 11.88756171977642 1.2859711180398683 2.0326536142070086 2 1 1
104 35 2 0.4236 2.4914811541389352 5.496329903627579 7.53901661117383 1 0 0
129 43 2 0.4236 6.701708915940712 6.099541628059041 0.9620380064003711 -1 1 0
60 20 2 0.4236 6.890532530336327 0.7823012030897547 4.528523301645068 1 0 1
66 22 2 0.4236 2.09310116349654 1.5827705061785993 7.464368537959472 0 0 1
103 35 1 -0.8472 1.9097187681119907 4.9940001431546195 8.17837014448368 1 0 0
155 52 2 0.4236 6.283128175785457 0.26203262005909234 7.751202867218597 -1 1 0
10 4 1 -0.8472 9.39414866755789 2.262715093859813 10.396029789163544 0 1 1
191 64 2 0.4236 3.210613279981851 2.7300979735979003 11.45919370214966 1 1 -1
192 64 2 0.4236 1.8222289958636986 2.2162567017612105 12.147522349300937 1 1 -1
149 50 2 0.4236 2.7188805163378116 3.7736596472964443 9.201110143606194 0 0 0
45 15 2 0.4236 0.38384351428655666 0.900852129829857 9.058714183366952 2 0 -1
35 12 2 0.4236 8.333616266788425 1.612143919615921 7.4583536756939575 -1 1 0
190 64 1 -0.8472 2.78494714093373 2.4296164419440034 12.312466404452191 1 1 -1
148 50 1 -0.8472 3.3357602746453376 3.1763543702586947 9.713204815370382 0 0 0
105 35 2 0.4236 0.9816613108965347 4.937749035591085 7.810810195707313 1 0 0
100 34 1 -0.8472 12.335907191193542 2.085848204111302 11.626220792377385 0 0 0
102 34 2 0.4236 12.108531347908386 1.8212686652457672 10.689282179521157 0 0 0
101 34 2 0.4236 12.03226240368367 3.024120390845442 11.790541192912746 0 0 0
34 12 1 -0.8472 7.924072264069172 2.294118424835116 8.063944294627078 -1 1 0
150 50 2 0.4236 3.802766964261795 2.558689192108808 9.08078913740526 0 0 0
85 29 1 -0.8472 12.058126271592306 3.197473229185395 7.231022485907778 -2 0 0
116 39 2 0.4236 10.295300603563222 1.011045252569197 2.266235947255402 2 1 1
133 45 1 -0.8472 9.773772437805743 4.7344994677753665 8.575782808220325 -1 0 0
87 29 2 0.4236 11.517147753431608 3.978922895193007 7.541239394438058 -2 0 0
73 25 1 -0.8472 7.916211770405573 0.9234208121963293 0.10345460934159087 0 1 1
6 2 2 0.4236 11.630835187725742 3.285278207899775 5.523401533900819 0 -1 0
134 45 2 0.4236 8.965735778896153 4.168642242732993 8.413186150815488 -1 0 0
138 46 2 0.4236 7.440936780975252 5.585491957599263 5.808720371326139 1 -1 0
95 32 2 0.4236 9.89755726045181 4.6418547622611745 5.326633165715923 0 1 -1
61 21 1 -0.8472 7.48613200519956 4.244177989300287 11.400005513156312 0 0 0
5 2 2 0.4236 11.299794505226895 2.90222752792051 3.971265927127661 0 -1 0
135 45 2 0.4236 10.05822884346527 4.642929470863048 9.52985560061862 -1 0 0
43 15 1 -0.8472 11.871008923993317 1.102245310091788 9.1206853595173 1 0 -1
63 21 2 0.4236 8.089883486356976 4.075091669481897 12.178754537352106 0 0 0
83 28 2 0.4236 5.0403337516352895 2.2857569749051225 7.399999451961604 0 0 0
86 29 2 0.4236 11.731372077734369 2.366436394560355 7.6806506316706775 -2 0 0
179 60 2 0.4236 11.934756741984957 0.37254409730789767 12.113212435353065 0 1 -1
94 32 1 -0.8472 9.468070934851482 5.531855709942631 5.478278407918883 0 1 -1
44 15 2 0.4236 11.353259492858959 0.3894644338643736 8.647997236968173 1 0 -1
11 4 2 0.4236 10.31512823396056 2.0199932082465057 10.091993446551488 0 1 1
82 28 1 -0.8472 5.345072592401746 1.6410546906410568 8.10074793643152 0 0 0
62 21 2 0.4236 7.312069121539449 3.3843640068665604 10.92044591742281 0 0 0
84 28 2 0.4236 6.261200366445584 1.8943124313407027 8.410789217676138 0 0 0
72 24 2 0.4236 11.402603525781197 6.199815318393337 10.816871117779831 -1 -1 0
136 46 1 -0.8472 6.692307459205439 6.042323125489597 6.288735686192831 1 -1 0
15 5 2 0.4236 2.8754988848698595 0.3632510920826233 0.8802375618678111 0 1 0
107 36 2 0.4236 4.95811668919102 6.105366103626389 6.497426084919115 0 1 0
92 31 2 0.4236 1.9034149795477953 6.120109695198253 1.999334238147999 0 1 1
106 36 1 -0.8472 3.971724315444849 6.024433165489757 6.355880721220173 0 1 0
121 41 1 -0.8472 0.7379000198175242 0.07300360117153813 2.6629798715317614 1 1 0
93 31 2 0.4236 3.0750917804611624 5.741485059968765 0.9273002064391921 0 1 1
152 51 2 0.4236 11.838903507794956 5.7149316073257985 2.3754652966101224 0 0 1
91 31 1 -0.8472 2.8508900833138457 5.817270906687125 1.8986627612108602 0 1 1
151 51 1 -0.8472 12.110856890810613 5.978758712655943 1.4502669831981794 0 0 1
33 11 2 0.4236 4.1566621528829835 0.15531088489680916 3.5174413323100104 0 1 1
128 43 2 0.4236 7.614680315700837 6.222763284026001 2.3099031346769974 -1 1 0
187 63 1 -0.8472 2.363163770212999 0.09240209660649513 8.782945052677238 0 1 0
90 30 2 0.4236 5.93967427069901 10.572974221820575 0.3114402471192988 1 0 0
31 11 1 -0.8472 3.9162973769725786 12.035563675643248 4.292329531057462 0 0 1
67 23 1 -0.8472 8.919856768581372 12.155472880286553 2.1644377773696535 1 -1 0
13 5 1 -0.8472 2.5269002369774864 11.991575195389059 0.45731030646734155 0 0 0
120 40 2 0.4236 2.1847379913912475 7.440358366844833 4.39834440118693 0 0 0
26 9 2 0.4236 5.25346107143481 8.960218224251198 2.457520734269312 0 0 0
80 27 2 0.4236 2.6904064669643404 8.966668493603349 3.50512787098883 1 -1 1
32 11 2 0.4236 3.366311061590233 11.265068230677025 3.9707582888332382 0 0 1
79 27 1 -0.8472 2.596210478635256 9.868380730122242 3.083703802147799 1 -1 1
81 27 2 0.4236 2.512165839663916 9.765946473473834 2.0927448344974797 1 -1 1
188 63 2 0.4236 3.1498710446330835 12.38364184446618 9.375087727514124 0 0 0
119 40 2 0.4236 3.0785624675466163 6.759486080713078 3.2138905257404136 0 0 0
156 52 2 0.4236 7.675719658887012 11.926017116896036 8.043311788062132 -1 0 0
51 17 2 0.4236 0.28008166095092524 10.950573419453663 7.016177012815325 2 -1 0
59 20 2 0.4236 5.901710380583876 11.961765980503127 4.337758136553761 1 -1 1
68 23 2 0.4236 8.15551965024862 12.28837422924597 2.7950574121820138 1 -1 0
46 16 1 -0.8472 0.6055038800488333 7.778811129016691 4.74689027494057 0 0 0
118 40 1 -0.8472 3.1122212149274437 7.307122940846666 4.049663286690168 0 0 0
189 63 2 0.4236 1.774182722915216 11.749183979539715 8.766495017328769 0 0 0
132 44 2 0.4236 5.71223704797666 8.817882815328103 4.626053335587097 -1 0 -1
130 44 1 -0.8472 5.798182892143513 8.033567249216878 4.012035759001434 -1 0 -1
131 44 2 0.4236 4.918186469242202 7.563590881437881 3.9465862177926043 -1 0 -1
40 14 1 -0.8472 5.703952998657914 6.316447344164321 11.668473576865244 1 -1 0
167 56 2 0.4236 7.459180714104541 7.238143822421101 4.107091113409759 0 0 0
78 26 2 0.4236 11.248696240492539 9.051783072179303 0.09844769509577454 0 1 1
175 59 1 -0.8472 0.04213055800756038 11.592566798718224 5.454921535434721 0 -1 0
25 9 1 -0.8472 5.538138923494169 9.825771343070713 2.046020946562906 0 0 0
27 9 2 0.4236 6.03967482477768 10.366602647705037 2.720942361143114 0 0 0
176 59 2 0.4236 0.3953917060585019 11.857362188194509 4.557901129740045 0 -1 0
177 59 2 0.4236 11.513418474717719 11.706240507833138 5.468752463858592 -1 -1 0
166 56 1 -0.8472 8.380193714078155 7.097805870486761 3.744330238968599 0 0 0
17 6 2 0.4236 1.7984625082080632 6.617248784788289 11.012773611476685 0 0 -1
47 16 2 0.4236 0.22612640842600393 8.64308600303659 4.417258584897958 0 0 0
153 51 2 0.4236 11.786745659143671 6.905005683104718 1.2590228077785823 0 0 1
178 60 1 -0.8472 11.992295377192647 11.87513129313962 12.379662375389822 0 0 -1
18 6 2 0.4236 0.3845279081890379 7.2997845377757615 10.565140071899823 0 0 -1
23 8 2 0.4236 9.010823167745102 8.77890418634667 3.1217876821474584 0 0 1
24 8 2 0.4236 10.240263990664983 9.443682917901995 2.2779958811617527 0 0 1
69 23 2 0.4236 9.267999323807784 11.222623637192967 2.254682763039675 1 -1 0
58 20 1 -0.8472 6.810622012629343 12.328714401738402 4.140822513742924 1 -1 1
22 8 1 -0.8472 9.59054090606158 9.587572741708716 3.0241264180370337 0 0 1
77 26 2 0.4236 0.08577090686244127 8.983221458224753 1.0816462846840824 1 1 1
20 7 2 0.4236 8.490655700510825 11.491256054011473 4.984000893229959 0 0 -1
19 7 1 -0.8472 9.465463104458411 11.35551234285054 5.159726107113706 0 0 -1
21 7 2 0.4236 9.852488427080202 10.764575568702327 4.452223247428776 0 0 -1
76 26 1 -0.8472 11.551032429730167 8.97908019471866 1.048638522563747 0 1 1
122 41 2 0.4236 1.4203107295890238 11.93516305123264 2.2493694515922185 1 0 0
168 56 2 0.4236 8.842567925002294 6.387490615821491 4.2746297289125845 0 0 0
125 42 2 0.4236 10.485704120567522 11.584230071469472 11.744609848425204 -1 0 -1
171 57 2 0.4236 9.893556816568251 11.426449750574395 9.402299400415762 -1 -1 -1
169 57 1 -0.8472 9.802783487730514 11.460651669444722 8.407238248797299 -1 -1 -1
88 30 1 -0.8472 6.185264610880571 11.031373289391226 11.901278295258932 1 0 -1
14 5 2 0.4236 3.0099524378461724 11.826546178312471 12.04138806369538 0 0 -1
173 58 2 0.4236 6.442392690185549 9.59202472066211 10.916821870313528 0 -2 0
172 58 1 -0.8472 6.40072302609025 8.874899908414728 10.221443721687105 0 -2 0
108 36 2 0.4236 3.7309824540766603 6.403913359346837 5.462799920985103 0 1 0
50 17 2 0.4236 12.380324424505233 9.65574254796356 7.941477572785602 1 -1 0
55 19 1 -0.8472 3.8073713364523964 11.097531711475922 10.62260746150087 1 -1 0
57 19 2 0.4236 3.654498673728613 10.160762511130521 10.30852373191255 1 -1 0
174 58 2 0.4236 5.446060773380414 8.633602360389277 10.048381074662709 0 -2 0
28 10 1 -0.8472 3.600853085488709 8.550849135266894 9.678430766329923 0 -1 -1
29 10 2 0.4236 2.808060094003501 8.073546234426344 10.056870178571899 0 -1 -1
137 46 2 0.4236 7.047316231961659 6.837754506928766 6.77946332739026 1 -1 0
49 17 1 -0.8472 0.3172705699224471 10.571388058130374 7.940510501175691 2 -1 0
30 10 2 0.4236 3.5718346534825014 8.505519301689937 8.680103035251614 0 -1 -1
110 37 2 0.4236 4.738242005279055 10.560952730030904 5.463091404685611 0 0 0
109 37 1 -0.8472 5.461400340366208 10.0437767999892 5.92039459243473 0 0 0
164 55 2 0.4236 2.2227176919977465 10.174042239781294 0.36465270846594827 0 -1 2
111 37 2 0.4236 6.0993310575222415 10.677727343268332 6.357093881130671 0 0 0
71 24 2 0.4236 10.39481873480825 7.439999363871997 10.482573824663733 -1 -1 0
170 57 2 0.4236 9.676087389752007 10.534683843884636 8.052150748861369 -1 -1 -1
16 6 1 -0.8472 1.3622366799973393 7.4602897454470725 10.698853553760738 0 0 -1
2 1 2 0.4236 6.219528518970633 9.094213526489646 7.332545196399755 0 1 0
1 1 1 -0.8472 6.80578407888265 8.349949995800348 7.651813383518221 0 1 0
89 30 2 0.4236 6.784460539198184 11.80671667502483 12.099676791884589 1 0 -1
41 14 2 0.4236 6.175962851543523 7.133733522858651 11.338617376231369 1 -1 0
186 62 2 0.4236 10.683468341154319 7.926154582378986 7.26222405361871 0 1 0
48 16 2 0.4236 0.33137105416050794 7.63560220922742 5.697625957170928 0 0 0
163 55 1 -0.8472 1.8483904142255263 9.250474401692912 0.44501123727872244 0 -1 2
180 60 2 0.4236 0.46481586785550283 11.661056050447513 0.21116399072802786 1 0 0
70 24 1 -0.8472 11.177646807007628 6.912664520981174 10.152946046356577 -1 -1 0
3 1 2 0.4236 6.729101424199817 8.268072548052789 8.645278097923267 0 1 0
165 55 2 0.4236 1.9434920412810852 8.77511398082902 12.01434667694238 0 -1 1
140 47 2 0.4236 8.218895423954201 8.725300622151407 10.407338026840709 -1 0 0
185 62 2 0.4236 11.51941438300721 7.334589629936505 8.533713444210825 0 1 0
139 47 1 -0.8472 9.113456659732686 8.812572516230986 10.845173004335642 -1 0 0
141 47 2 0.4236 9.269835830643384 9.767593721536157 11.0962431011446 -1 0 0
158 53 2 0.4236 9.427880941888557 9.363931944133046 6.070305195885501 0 0 -1
184 62 1 -0.8472 11.583032480748072 7.626976877904567 7.5797649965857605 0 1 0
159 53 2 0.4236 8.302964570658936 8.527039951983397 6.906735715595501 0 0 -1
157 53 1 -0.8472 9.283752235151331 8.661203288620348 6.7666920462587425 0 0 -1
124 42 1 -0.8472 9.685443503396481 11.412071639014039 11.170589201447118 -1 0 -1
154 52 1 -0.8472 6.85947100757627 11.960599061963226 7.467032831399049 -1 0 0
56 19 2 0.4236 4.713991152778256 11.165803096316768 11.03846159334637 1 -1 0
126 42 2 0.4236 8.878727744173823 11.827607503013622 11.590225687591415 -1 0 -1

Velocities

65 -0.01119787961173115 -0.0030825308354633036 -0.01467328358326377
7 0.0007754487942416242 -0.004879581537302784 -0.0026560352120255583
8 0.019709904124694175 0.02117784554720158 0.0041252425677690075
9 0.0020938379654569525 0.02577232234650073 -0.0006718528043961371
112 -0.004389105848074674 -0.0007347580875847087 0.0030393674582492322
113 0.00330355851445999 0.0015653286034937998 -0.010511662281995468
114 -0.006970701551179219 0.00932704062267448 -0.004391727710247954
64 -0.001489630239400025 0.00680262335450101 0.0008473065355711996
147 0.008419219380786895 -0.032470050445239575 -0.010422734235646934
145 -0.006919441799606556 0.008109676636113849 0.00796728297888736
53 0.0007065406769838123 -0.002053995094183859 -0.016382152354864742
54 0.012613671364415251 -0.007826041742876426 -0.027871228227002973
181 0.004799650838535576 0.003965377060185627 -0.0018509805660938483
182 0.011834720491382393 -0.01637476110938202 0.0038316189611934314
115 0.0061641270585787375 -0.0019881151307621346 -0.001453410403987796
52 0.0015827975607554323 -0.0008792408899813376 0.0033557396824621666
146 -0.003321651091593608 0.014603670800508632 0.008005977782930024
123 0.015397619568529112 -0.01902405035034438 0.023895490762496332
42 0.0096033025956874 0.004444183619360355 0.008927585365704696
127 0.0036884672065739454 0.00023408816822294341 0.00020577514468394928
12 -0.0050032581620107755 -0.004254065516255854 -0.0030940353369747603
96 0.0015833930276058926 -0.01575021816340643 -0.0005262490103744858
183 -0.003395352660001542 0.02290290930781285 -0.007857685881529955
38 -0.004310993773249804 -0.023857700467269895 0.019351933725545244
99 7.687396572826306e-05 -0.0036375550720471805 -0.002302132804480168
97 0.002514806683950624 -0.0047103732837515755 0.002033428155911234
4 -0.00842003333378885 -0.0018794180832053641 0.001611644207750285
98 0.0010356003219798011 -0.006350256575130123 -0.01099581840289487
162 -0.010052059078047744 0.0020134453881534967 -0.0007190478305496539
143 -0.0022639719030527325 -0.0016116754395077456 -0.009615853949986278
74 -0.017180544992846256 -0.018827025119381627 -0.006616932737555647
39 -6.843655782870449e-05 0.010385941984032 -0.0115570126814765
161 0.0109925402024333 -0.006165273868438023 -0.005620617013462416
160 0.003138773764003417 -0.004480832729544425 0.00013475386065760122
144 -0.00120700982901566 0.0003037114148783521 -0.010014119427009586
142 0.0004790520247640448 0.0032835761683421556 -0.007852825675654963
37 -0.0034542070804464723 0.001692576940749749 -0.0004523065190432671
36 -0.013527248867888626 -0.00405223876011315 0.012025022595775184
75 0.00833418612930613 0.007470522843347461 0.012770824024970819
117 0.00012700308656648146 -0.015501556754265473 0.0002561629981535685
104 0.004065917832464255 0.006687139157969792 0.005791962478474502
129 0.0019162214027401779 -0.013403790500796937 -0.009108330973124959
60 0.004481665625290065 -0.001981310673117205 0.016539707888100465
66 -0.014536431021793212 0.0014280788153049444 0.001125604249776808
103 0.004957618132723747 -0.0018340539092521666 0.00026306782937582943
155 0.0006775889572438984 -0.005844171007304652 -0.012268192404788441
10 -0.005904809535972184 0.0008078591567395529 0.0010207419831819273
191 0.0009999322041061758 0.0035630507875418624 0.0018959656688000987
192 -0.0014858628863533088 -0.003415534978585098 -0.007440861773157299
149 -0.015809149547375452 -0.006393331256027302 0.012218415702850878
45 -0.0006020319137606833 -0.005415656343326368 -0.009053133795527097
35 0.007033162231984534 0.006501255940496892 0.004975288780759543
190 -0.0055657940700096775 0.00953844686846814 0.0009764265943773635
148 -0.0015699906526637484 -0.0005753590170876184 0.0023344148019742673
105 0.0035905650079107194 0.0050862673339694565 0.002047094154265007
100 0.0004411137212569931 0.004320367234804026 0.002395699719198065
102 -0.005130770140634784 -0.002926135723920344 0.005548259124025503
101 -0.012135843215146385 0.000599700643905133 0.001742600010939182
34 0.003434784741015903 0.008154793204784357 0.0010601627615593528
150 -0.005364428501161286 0.004166191299685998 -0.005457528210428135
85 0.0006976843789908398 -9.019209000493026e-05 -0.0009383997309484704
116 -0.0024490981380785727 0.008356200815460159 0.013327983750305618
133 0.00010959476174262844 -0.001957195917362371 -0.0025780320109830474
87 -0.0017630504107653058 -0.003912922158971461 0.0051104150677902084
73 -0.0022971959774096616 0.006148300272719884 -0.0006985051808648583
6 -0.00659092654363655 0.009561722471877821 -0.0014381987683493175
134 -0.010463608150134323 0.011160267777333494 0.0030280554969646066
138 0.0016588320964026169 0.0015817485978352763 0.010016218013838315
95 -0.011503988070340867 -0.013704756774129375 -0.005109761812773251
61 0.0015745602661270458 -0.00888911981601173 0.0003204521257688725
5 -0.008112004952199334 -6.511928156845671e-05 0.000874846265237663
135 -0.015041291898783364 0.020065656498855652 0.004254596625184125
43 -0.0002860276879589433 -0.006765035359610798 0.003961821516879733
63 0.007923816406318063 -0.008925667730706308 -0.004323690878911845
83 -0.007930993377275063 0.005327589918341448 0.011963561714976208
86 0.013657203749558148 -0.0022310668523531124 0.004982620809023512
179 -0.011663008754939214 0.011872005560745162 0.0446446044672159
94 0.010879133124891168 -0.0017629595384872072 -0.010234771537046506
44 -0.005179906895508724 -0.0030132079852592886 0.0031885027346864638
11 0.001724201665371947 0.014458971229315772 0.012479543443216005
82 0.0002786381005308863 -0.0036869331346686763 0.00041840792166050777
62 0.021666806031953856 -0.004138610888346027 -0.015910544145015002
84 -0.005215337513677795 0.00595299489869265 0.00950879790102537
72 0.019266126541420712 0.004249058889023466 -0.004130277442994116
136 -0.0020672143279375807 0.006200620440847622 0.0002545164580820145
15 -0.006737372868017698 0.010026006231773474 -0.02133441497237313
107 0.0015872977848217819 0.003663826968000293 -0.013291065778677898
92 -0.0068070670161618375 -0.024697557505439883 0.008626363776277993
106 3.579768568225293e-05 -0.0012266996284555141 -0.0012239388852122613
121 0.007474081825515639 7.998405728033401e-05 -0.00043633887349285014
93 -0.006508534722614771 -0.009866936693900766 0.0031692873152407083
152 -0.016188354838897488 0.003351826840061471 -0.002989686562512354
91 -0.0011846411932015933 -0.006314543673444144 0.004349472733359607
151 -0.00829633856602437 -0.005764924499482962 -0.003516316229419937
33 0.006832361178316007 -0.011125191685686866 -0.012161803402019696
128 -0.014167947695935077 0.011085453503163225 -1.3569102313222756e-05
187 -0.001068726276275535 0.0036691667157355665 0.0028822473100637335
90 0.008335924390251591 -0.0006937947959960066 0.002068307132566555
31 0.001437343534979927 0.0001308455870812377 -0.005026546626641739
67 0.0011870849941302843 -0.006156489497635007 0.0004285269871764444
13 0.004336711392623527 -0.0013116335631688286 -0.008525014285838354
120 -0.006394228062785661 0.021328847731702395 -0.006380825574316195
26 -0.0037742361240499962 0.0021840382964834005 0.0029683383657107256
80 -0.023817797182001936 0.0033490563960326754 0.015336134383527739
32 -0.004474076469432895 0.00036296675736101146 0.0038370219488062726
79 -0.00023312749463918537 0.0005509679277412608 0.003528916097321929
81 0.023496959165508036 -0.008488065021186512 0.0022191934763888684
188 -0.02273113939911107 0.025459409450430535 0.03845726605344858
119 -0.003559730033613754 -0.0023425671057460914 0.008877785041056034
156 0.007238817908056537 0.009153137862625943 -0.0004774622113919658
51 -0.008563694262711799 0.018271394374835808 0.012132534906649657
59 -0.0005840690477508029 0.0018992416840690662 0.013526402661458672
68 0.00692624373885586 0.0005767205217284185 0.006306298401314984
46 0.0026217427771787105 0.0015545378593332397 -0.0018224554219873138
118 -0.003651052647942947 -0.0027630980059471276 0.009425119863552132
189 -0.0066395464329373315 0.007059081629372556 0.02032364987829564
132 0.008539476284873539 0.0036792785720710683 -0.020015304129750944
130 0.0010962059621270673 -0.0071163380777176715 -0.007668757767749732
131 -0.005353810461026969 0.004190815070439545 -0.005599134289458847
40 -0.005864605132282296 0.0011799948485223303 -0.0069062998845797335
167 -0.0029992490482527593 -0.015255508918828042 0.008942035203697437
78 0.002252419862946789 -0.0030754815774113003 -0.003637838673575886
175 0.005139145076797034 0.005799897700579589 0.006090676684643132
25 0.0011247600195368507 -0.0019996148492316713 -0.0030019931174685073
27 -0.02267552145633171 0.013181089257557961 0.002857895321743546
176 0.016204143266814793 -0.015556235281642601 0.0038959737346272714
177 0.004230651078997895 0.0018297132931688676 -0.010271487954513594
166 -0.004367435870634418 -0.004073704691674923 0.0005009578795460853
17 -0.010744091475496554 -0.010277070631219807 0.0021988355676953006
47 -0.01044179133105506 0.002385657920162905 0.014714770935381368
153 0.028416548170902736 0.007874292686987347 -0.0007768239814973432
178 -0.001833140708282714 -0.000310932161997304 -0.000727154426281938
18 -0.007070173024504501 0.0014604168067086664 0.0071388695937422446
23 -0.016230567093953718 0.003957135323416497 -0.004762518912013589
24 -0.008794824853891449 -0.007643243905869331 -0.0037679531690326703
69 -0.00420857036401953 -0.008445152204156354 8.091478513647959e-05
58 -0.003286597504176958 0.0038874054545490646 0.003622311621481393
22 -0.00011769090881777434 -0.006244880215377214 0.0038360998529005765
77 0.006120777393391289 -0.008880582223917702 -0.008559247736100048
20 0.00544438987320076 0.019980247498359745 -0.011621023281414553
19 0.001122148010441987 0.0015940479785349702 -0.0006632432544824043
21 -0.004071981135206797 -0.013692781892247062 0.008945549774127723
76 0.00572543494165372 -0.002192800734816027 -0.0044409284428585495
122 0.0021216464539585275 -0.0025134133813926617 -0.006034206804186988
168 0.0019106699645063355 -0.013021587831994306 -0.016472033113920464
125 -0.0011730551057279178 0.025502164624906672 -0.011073722325192017
171 0.014919676033550553 0.0038682859177198484 -0.0029333883282108126
169 0.0016509760844521037 -0.0006743893879043677 -0.002107801421154326
88 0.0037825984538096195 0.0018516230620976616 0.0018608769758612028
14 -0.009974580341372333 0.004673783265787923 -0.01795618432973026
173 -0.0011554187182931076 0.004235313911649483 0.004358729296364663
172 0.004202485213483838 0.006492477102141446 0.001380350039531711
108 -0.010563920731924562 -0.017627150786457144 -0.005591909684598476
50 -0.0023783689928902375 -0.001115125862167985 -0.011924484435551176
55 -0.00042105506717373314 0.002834895389039269 -0.005449833622088801
57 0.004541023974223492 -0.003686251139529925 0.010822649520361823
174 0.006501741112812709 -0.01094394948814117 0.011656901115847846
28 -0.0028447096720446105 0.0077267490118122775 -0.0020442288951174423
29 0.0040846355490717304 -0.005146861256529679 -0.0031699098736820723
137 -0.0011464741427997078 -0.004351269823032893 0.017141530908019207
49 -0.00034495512053980414 -0.001747851831003597 0.0038360544569300222
30 0.0045520994352429315 -0.001118656715335441 -0.002079988350412365
110 -0.003598038363439428 -0.01579491650612496 -0.005627737457077022
109 0.0018954335262542853 -0.006339394519498454 -0.0031430727295174337
164 0.008610131731864597 -0.0017998568127795668 0.0204422943856731
111 -0.010200801632623522 0.0021020403872354845 0.0027507685850593007
71 -0.0037723735431844803 -0.009867621468043094 0.01097453332684165
170 -0.016267374526448504 -0.0011914380678446326 0.004969781686405291
16 -0.0048697776675410255 -0.006785587228915451 0.0027000629553300005
2 0.0051974256354180605 0.01718510156532775 0.010589091550501245
1 -0.0028106571725734554 0.004706029559824861 -0.0030078229145785434
89 0.001778222405907688 0.0038400129390906254 0.0012519218968476634
41 -0.004328012630077956 0.0045043939797167745 0.00284463577571098
186 -0.0023455556371020565 0.012338660963913528 0.015984268886816245
48 0.031476010976612026 -0.005266888799056886 0.005722218923430422
163 0.004249858510965503 -0.0019574245371756812 0.0013225762519623045
180 2.9445766139096077e-05 -0.003219585543526498 -0.008510231472950588
70 -0.0014979712818392265 0.0007308620576618413 -0.0012876621475387325
3 -0.0028319937442849038 -0.011992624256397725 -0.004138834944967275
165 0.04232674016454784 0.00041880469705653966 0.0038752742655578424
140 -0.0017347780954955303 -0.007214481035899896 0.005767205638649146
185 0.0146386758251295 0.013843598164362222 0.005988033540782898
139 -0.0005091928158030315 0.003759268823507147 0.0015834033588969134
141 0.00029703742425137713 0.010302372456305888 -0.023033734057724693
158 -0.004126472568341536 0.0161731222854748 0.011190598431328629
184 -0.0004506360057399726 0.0012715561838528584 0.0008855481594329218
159 -0.0031423304965912274 -0.001542705178781279 -0.00447566400641838
157 -0.003098711713934622 0.0051454457214577054 0.000595422936953229
124 -0.004041408616335779 0.0010243220316690446 -0.00013710520063293517
154 0.004616956026894624 -0.008388923071767744 0.0018164677078877718
56 -0.0028008974416281435 0.013591991408861063 -0.0014821292615118662
126 -0.002981647502236523 0.015525426355524867 -0.011955675337878648

Bonds

1 1 7 8
2 1 7 9
3 1 112 113
4 1 112 114
5 1 64 65
6 1 64 66
7 1 145 146
8 1 145 147
9 1 181 182
10 1 181 183
11 1 115 116
12 1 115 117
13 1 52 53
14 1 52 54
15 1 127 128
16 1 127 129
17 1 97 98
18 1 97 99
19 1 4 5
20 1 4 6
21 1 160 161
22 1 160 162
23 1 142 143
24 1 142 144
25 1 37 38
26 1 37 39
27 1 103 104
28 1 103 105
29 1 10 11
30 1 10 12
31 1 190 191
32 1 190 192
33 1 148 149
34 1 148 150
35 1 100 101
36 1 100 102
37 1 34 35
38 1 34 36
39 1 85 86
40 1 85 87
41 1 133 134
42 1 133 135
43 1 73 74
44 1 73 75
45 1 61 62
46 1 61 63
47 1 43 44
48 1 43 45
49 1 94 95
50 1 94 96
51 1 82 83
52 1 82 84
53 1 136 137
54 1 136 138
55 1 106 107
56 1 106 108
57 1 121 122
58 1 121 123
59 1 91 92
60 1 91 93
61 1 151 152
62 1 151 153
63 1 187 188
64 1 187 189
65 1 31 32
66 1 31 33
67 1 67 68
68 1 67 69
69 1 13 14
70 1 13 15
71 1 79 80
72 1 79 81
73 1 46 47
74 1 46 48
75 1 118 119
76 1 118 120
77 1 130 131
78 1 130 132
79 1 40 41
80 1 40 42
81 1 175 176
82 1 175 177
83 1 25 26
84 1 25 27
85 1 166 167
86 1 166 168
87 1 178 179
88 1 178 180
89 1 58 59
90 1 58 60
91 1 22 23
92 1 22 24
93 1 19 20
94 1 19 21
95 1 76 77
96 1 76 78
97 1 169 170
98 1 169 171
99 1 88 89
100 1 88 90
101 1 172 173
102 1 172 174
103 1 55 56
104 1 55 57
105 1 28 29
106 1 28 30
107 1 49 50
108 1 49 51
109 1 109 110
110 1 109 111
111 1 16 17
112 1 16 18
113 1 1 2
114 1 1 3
115 1 163 164
116 1 163 165
117 1 70 71
118 1 70 72
119 1 139 140
120 1 139 141
121 1 184 185
122 1 184 186
123 1 157 158
124 1 157 159