-5.503886135209999111e+02
-5.503889259219999985e+02
-5.503889682640000274e+02
-5.503892529880000666e+02
-5.503896507400000928e+02
-5.503899391310000055e+02
-5.503899510229999805e+02
-5.503897038439999960e+02
-5.503893395910000663e+02
-5.503889973779999991e+02
-5.503887821829999893e+02
-5.503887222189999875e+02
-5.503888090369999873e+02
-5.503890136720000328e+02
-5.503892548310000166e+02
-5.503894855830000097e+02
-5.503896805589999985e+02
-5.503897667740000088e+02
-5.503897226840000485e+02
-5.503895664729999453e+02
-5.503893231020000485e+02
-5.503890809279999985e+02
-5.503889627769999606e+02
-5.503890405500000043e+02
-5.503892643189999490e+02
-5.503895157340000424e+02
-5.503896738070000083e+02
-5.503896719460000213e+02
-5.503895258480000621e+02
-5.503892884370000047e+02
-5.503890484350000634e+02
-5.503888870429999542e+02
-5.503888416600000255e+02
-5.503888848149999831e+02
-5.503889987740000151e+02
-5.503891475409999430e+02
-5.503892922049999470e+02
-5.503893970970000282e+02
-5.503894329390000166e+02
-5.503893904729999349e+02
-5.503892995580000616e+02
-5.503891974660000415e+02
-5.503891275320000886e+02
-5.503891165119999869e+02
-5.503891794889999574e+02
-5.503892890399999942e+02
-5.503893577050000658e+02
-5.503893246530000170e+02
-5.503892106179999928e+02
-5.503890876589999834e+02
-5.503890324400000509e+02
-5.503890163099999882e+02
-5.503890139380000619e+02
-5.503890122149999797e+02
-5.503890214980000337e+02
-5.503890529249999872e+02
-5.503890896569999995e+02
-5.503891085060000705e+02
-5.503891088799999807e+02
-5.503891167889998997e+02
-5.503891405959999474e+02
-5.503891742270000123e+02
-5.503891766799999914e+02
-5.503891178429998945e+02
-5.503890307169999687e+02
-5.503889959110000518e+02
-5.503890653749999728e+02
-5.503891888650000510e+02
-5.503892581159999509e+02
-5.503892315990000270e+02
-5.503891440470000589e+02
-5.503890490950000185e+02
-5.503889876710001090e+02
-5.503889694590000090e+02
-5.503889830570000186e+02
-5.503890008430000762e+02
-5.503890097309999874e+02
-5.503890019149999944e+02
-5.503889904760000036e+02
-5.503889830150000080e+02
-5.503890274880000106e+02
-5.503891221309999082e+02
-5.503891954879999275e+02
-5.503891981730000680e+02
-5.503891212730000007e+02
-5.503889867930000719e+02
-5.503888643220000176e+02
-5.503888270209999973e+02
-5.503888988620000191e+02
-5.503890247770000315e+02
-5.503891236460000300e+02
-5.503891508510000676e+02
-5.503891300510000519e+02
-5.503890877960000125e+02
-5.503890657459999147e+02
-5.503890559759998951e+02
-5.503890308770000956e+02
-5.503889606829999366e+02
-5.503888836869999750e+02
-5.503888499570000477e+02
-5.503888786539999955e+02
