      96
 i =        0, time =        0.000, E =      -550.5239948772
  O         2.2803980000        9.1465390000        5.0886960000
  O         1.2517030000        2.4062610000        7.7699080000
  O         1.5963020000        6.9201280000        0.6566950000
  O         2.9575180000        3.7718680000        1.8773870000
  O         0.2289720000        5.8840260000        6.5323080000
  O         9.0234310000        6.1196540000        0.0924510000
  O         7.2562890000        8.4936410000        5.7720410000
  O         5.0904220000        9.4670160000        0.7431770000
  O         6.3308880000        7.3634710000        3.7477500000
  O         7.7638190000        8.3493670000        9.2794570000
  O         8.2807980000        3.8371530000        5.7992820000
  O         8.8782500000        2.0257970000        1.6641020000
  O         9.1603720000        0.2851000000        6.8710040000
  O         4.9620430000        4.1344370000        0.1733760000
  O         2.8028960000        8.6903830000        2.4359520000
  O         9.1232230000        3.5492320000        8.8767210000
  O         1.4537020000        1.4025380000        2.3582780000
  O         6.5365500000        1.1467900000        7.6097320000
  O         2.7667090000        0.8815030000        9.5442630000
  O         0.8564260000        2.0759640000        5.0106250000
  O         6.3860360000        1.9189500000        0.2426900000
  O         2.7330230000        4.4527560000        5.8502030000
  O         4.6000390000        9.2543140000        6.5759440000
  O         3.6653730000        6.2105610000        3.1584200000
  O         3.3716480000        6.9255940000        7.4760360000
  O         5.2879200000        3.2706530000        6.1550800000
  O         5.2252370000        6.9595940000        9.5829910000
  O         0.8462930000        5.5958770000        3.8206300000
  O         9.7856200000        8.1646170000        3.6578790000
  O         8.5099820000        4.4303620000        2.6799460000
  O         1.3376250000        8.5809200000        8.2724840000
  O         8.0544370000        9.2213350000        1.9913760000
  H         1.7620190000        9.8204290000        5.5284540000
  H         3.0959870000        9.1070880000        5.5881860000
  H         0.5541290000        2.9826340000        8.0820240000
  H         1.7712570000        2.9547790000        7.1821810000
  H         2.1121480000        6.1263210000        0.7981360000
  H         1.7763890000        7.4632640000        1.4240300000
  H         3.7542490000        3.8240170000        1.3494360000
  H         3.0105800000        4.5241420000        2.4668780000
  H         0.9394750000        5.2438340000        6.5719450000
  H         0.5157230000        6.5205480000        5.8774450000
  H         9.8529600000        6.4903660000        0.3935930000
  H         8.5560080000        6.8600630000       -0.2942560000
  H         7.8866070000        7.9413210000        6.2345060000
  H         7.7938550000        9.1410280000        5.3158130000
  H         4.4673660000        9.9711620000        0.2198510000
  H         5.7586850000       10.1027950000        0.9989940000
  H         6.6526930000        7.9174430000        3.0365620000
  H         6.7119660000        7.7435940000        4.5392790000
  H         7.7519550000        8.7451800000       10.1509050000
  H         7.8292080000        9.0922120000        8.6793430000
  H         8.3125400000        3.2183300000        6.5288580000
  H         8.5088550000        4.6806990000        6.1899900000
  H         9.7422490000        1.7049750000        1.9225810000
  H         8.7990600000        2.8764120000        2.0958610000
  H         9.5053600000        1.1616770000        6.7012130000
  H         9.9201170000       -0.2197940000        7.1610060000
  H         4.7499030000        4.1860030000       -0.7585950000
  H         5.2480100000        5.0184150000        0.4036760000
  H         3.5760650000        9.0784510000        2.0262640000
  H         2.7202380000        9.1469740000        3.2731640000
  H         9.0855610000        4.4930580000        9.0316600000
  H         9.2153910000        3.1663050000        9.7491330000
  H         1.9997050000        2.0604110000        1.9277960000
  H         1.8241840000        0.5645650000        2.0811950000
  H         7.4303340000        0.8497640000        7.4389780000
  H         6.5760290000        1.5370170000        8.4828850000
  H         2.4158510000        1.5764600000        8.9873380000
  H         2.2769570000        0.0995370000        9.2894990000
  H         1.1609870000        1.8180230000        4.1406020000
  H         0.3502560000        2.8744370000        4.8607410000
  H         5.7688040000        2.6384500000        0.3752640000
  H         7.2218230000        2.2575140000        0.5637300000
  H         3.2607970000        5.2433900000        5.9623820000
  H         3.3478480000        3.7322140000        5.9881960000
  H         5.3286880000        9.0730590000        5.9822690000
  H         5.0070630000        9.6721500000        7.3348750000
  H         4.5668500000        6.4133560000        3.4083120000
  H         3.2731150000        7.0616660000        2.9635210000
  H         3.8783720000        7.4350030000        6.8436070000
  H         3.8846730000        6.9663160000        8.2831170000
  H         5.9182400000        3.1168020000        5.4513350000
  H         5.3559240000        2.4950930000        6.7119580000
  H         5.0718580000        7.6872540000       10.1856670000
  H         6.1063940000        7.1123020000        9.2417070000
  H         1.6373630000        5.1849100000        4.1692640000
  H         0.4276450000        4.9089360000        3.3019030000
  H         9.9716980000        7.2270760000        3.7091040000
  H        10.6479010000        8.5792440000        3.6298060000
  H         8.0468080000        5.1263830000        2.2138380000
  H         7.9953170000        4.2900740000        3.4747230000
  H         1.8726010000        7.8646720000        7.9304010000
  H         0.8376350000        8.1868080000        8.9872680000
  H         8.3146960000       10.1155340000        2.2125190000
  H         8.6871340000        8.6672520000        2.4484520000
      96
 i =        1, time =        0.500, E =      -550.5213438655
  O         2.2835567694        9.1444340100        5.0876986800
  O         1.2529807677        2.4051838636        7.7686002971
  O         1.5954887482        6.9186498579        0.6542788461
  O         2.9615463836        3.7686822020        1.8785484465
  O         0.2327281926        5.8824081493        6.5326385425
  O         9.0246903073        6.1179344557        0.0949668377
  O         7.2562646533        8.4921036327        5.7734983792
  O         5.0873459115        9.4643877980        0.7413835170
  O         6.3284729796        7.3651876835        3.7454121862
  O         7.7634370583        8.3533023450        9.2777299792
  O         8.2799476507        3.8403763741        5.7974706522
  O         8.8796663247        2.0249622269        1.6662488230
  O         9.1603036215        0.2857351213        6.8682141670
  O         4.9606280654        4.1337483815        0.1749782097
  O         2.8025860786        8.6938908513        2.4356725787
  O         9.1272602874        3.5502876509        8.8769234199
  O         1.4534786797        1.3994217822        2.3603412796
  O         6.5358268085        1.1475027139        7.6100833385
  O         2.7680634939        0.8814304673        9.5436524627
  O         0.8551214682        2.0776572970        5.0113996425
  O         6.3873044232        1.9184685964        0.2466069628
  O         2.7305969627        4.4526926305        5.8489809229
  O         4.6029761849        9.2542039041        6.5743973602
  O         3.6596532632        6.2097839353        3.1584242137
  O         3.3693738139        6.9270459621        7.4743574481
  O         5.2909129598        3.2726831129        6.1574447113
  O         5.2262820769        6.9561929416        9.5836284267
  O         0.8470372717        5.5959729327        3.8203522347
  O         9.7821145766        8.1641152187        3.6587909129
  O         8.5074503688        4.4302826065        2.6788165696
  O         1.3374142253        8.5835959903        8.2740425376
  O         8.0529248627        9.2224119108        1.9930367801
  H         1.7781219501        9.8308658083        5.5387100763
  H         3.1007178208        9.0996138407        5.5833583172
  H         0.5678567008        2.9897568934        8.0777713938
  H         1.7618580262        2.9464405321        7.1823020467
  H         2.0987914709        6.1319152579        0.7943956772
  H         1.7731066679        7.4790766728        1.4295029500
  H         3.7557954708        3.8216709362        1.3476948243
  H         2.9987972432        4.5251418421        2.4690627355
  H         0.9423772287        5.2439659655        6.5586299531
  H         0.5119345626        6.5123726674        5.8718776979
  H         9.8506613663        6.4869577866        0.3908032787
  H         8.5573802096        6.8564136243       -0.2960261094
  H         7.8739612990        7.9271880907        6.2344334383
  H         7.7929271564        9.1378443563        5.3074259540
  H         4.4709607384        9.9743929452        0.2017399867
  H         5.7639834270       10.1159723304        0.9989783182
  H         6.6406421191        7.9161956389        3.0321490216
  H         6.7181326629        7.7401581843        4.5437303222
  H         7.7569145688        8.7455512646       10.1527809129
  H         7.8387548042        9.0846780341        8.6874564086
  H         8.3168555846        3.2348060440        6.5379561917
  H         8.5104664953        4.6831545377        6.1920839559
  H         9.7321447442        1.7017866064        1.9087231461
  H         8.7918752358        2.8706472104        2.0948705519
  H         9.5167256140        1.1613082276        6.6961890488
  H         9.9365038197       -0.2248124133        7.1728933827
  H         4.7514772079        4.1850472569       -0.7485612515
  H         5.2511569406        5.0166382058        0.4006210817
  H         3.5740494969        9.0846290211        2.0335626452
  H         2.7240626099        9.1385753924        3.2766066752
  H         9.0840894351        4.4968712453        9.0288999960
  H         9.2238608619        3.1586751192        9.7568517577
  H         1.9933791560        2.0697951258        1.9157027571
  H         1.8257121817        0.5561537927        2.0912592168
  H         7.4260614143        0.8552259170        7.4482722575
  H         6.5860473801        1.5437758915        8.4982091337
  H         2.4191040577        1.5797320957        8.9873127960
  H         2.2842815125        0.1003607784        9.2691745525
  H         1.1676958583        1.8251316870        4.1569492121
  H         0.3487767141        2.8679144534        4.8565231289
  H         5.7726620701        2.6256820514        0.3804682685
  H         7.2182252327        2.2691776273        0.5575541494
  H         3.2545492715        5.2395080521        5.9588986494
  H         3.3429527786        3.7159868098        5.9846484698
  H         5.3221649824        9.0606530848        5.9965161179
  H         5.0030363079        9.6736969685        7.3237950598
  H         4.5717958530        6.4112071468        3.3988668883
  H         3.2739765578        7.0799594819        2.9583805725
  H         3.8750131710        7.4432658810        6.8586431313
  H         3.8701559489        6.9695933583        8.2763350759
  H         5.9178906552        3.1024640962        5.4501791409
  H         5.3515644199        2.5032175271        6.7194680488
  H         5.0634140688        7.6856931669       10.1820420240
  H         6.1046333629        7.1169414135        9.2488678512
  H         1.6379833245        5.1974153984        4.1686586618
  H         0.4332623600        4.9017234393        3.3057173006
  H         9.9861734531        7.2339490998        3.7003103900
  H        10.6468410690        8.5844462838        3.6277405748
  H         8.0411981627        5.1271873070        2.2037913902
  H         7.9988209571        4.2910867025        3.4766158925
  H         1.8712717726        7.8632879264        7.9132071138
  H         0.8343469918        8.1914844305        8.9800635120
  H         8.3063230323       10.1191094051        2.2230381708
  H         8.6918578914        8.6678063520        2.4476956667
      96
 i =        2, time =        1.000, E =      -550.5260327709
  O         2.2865614262        9.1422748539        5.0864915764
  O         1.2544427016        2.4037934354        7.7673195011
  O         1.5945383172        6.9173504944        0.6517935390
  O         2.9653198721        3.7653183742        1.8797353352
  O         0.2362473399        5.8808329136        6.5331316443
  O         9.0257388695        6.1158789554        0.0974982610
  O         7.2560478271        8.4905667831        5.7749573074
  O         5.0842357350        9.4615937344        0.7397344981
  O         6.3258377380        7.3666350719        3.7429068230
  O         7.7630054398        8.3569373932        9.2759356890
  O         8.2790423398        3.8435011966        5.7954385820
  O         8.8807037503        2.0240245502        1.6681426522
  O         9.1600789765        0.2862801080        6.8654338781
  O         4.9592119655        4.1328536474        0.1767331789
  O         2.8020783066        8.6972543978        2.4352788115
  O         9.1312561289        3.5511925738        8.8769899854
  O         1.4531088201        1.3963323228        2.3625268641
  O         6.5348590653        1.1482287331        7.6103452944
  O         2.7696591483        0.8813351627        9.5432836774
  O         0.8538276702        2.0792632429        5.0124493476
  O         6.3886343460        1.9176639753        0.2504599145
  O         2.7278947307        4.4525486032        5.8477051139
  O         4.6055371048        9.2539750924        6.5727403316
  O         3.6538424556        6.2088446453        3.1584192140
  O         3.3667634480        6.9282995338        7.4725370001
  O         5.2937264506        3.2748858337        6.1597865787
  O         5.2271501304        6.9524668223        9.5842156609
  O         0.8477120561        5.5962502222        3.8200297783
  O         9.7784297744        8.1638187903        3.6596702264
  O         8.5050053340        4.4301440632        2.6776306839
  O         1.3371431766        8.5865753366        8.2755038494
  O         8.0511481306        9.2234284620        1.9945261835
  H         1.7929674192        9.8428860302        5.5494007245
  H         3.1090838387        9.0923431805        5.5809224839
  H         0.5772717984        2.9996235000        8.0764342874
  H         1.7546506456        2.9399301622        7.1791898476
  H         2.0876077583        6.1336667669        0.7912480017
  H         1.7704334796        7.4959684292        1.4359127161
  H         3.7598325716        3.8196113688        1.3434596483
  H         2.9876189678        4.5286586973        2.4732259600
  H         0.9480173610        5.2418938937        6.5451633345
  H         0.5086917162        6.5056265037        5.8642695631
  H         9.8531757389        6.4846462227        0.3895578752
  H         8.5568289704        6.8557305914       -0.2995343564
  H         7.8631042342        7.9119082511        6.2357597667
  H         7.7942031974        9.1363818091        5.2988880054
  H         4.4720564568        9.9793225184        0.1818335470
  H         5.7704348268       10.1300816549        0.9987954389
  H         6.6296478816        7.9169338967        3.0252062959
  H         6.7255575812        7.7377639593        4.5513723861
  H         7.7621354521        8.7475199613       10.1593414719
  H         7.8486616274        9.0802642853        8.6920963005
  H         8.3208067769        3.2496454708        6.5490221637
  H         8.5138913253        4.6886557373        6.1947979838
  H         9.7286252046        1.6964018085        1.8959049931
  H         8.7837969355        2.8693939027        2.0960647703
  H         9.5300459499        1.1632921742        6.6904341813
  H         9.9540570205       -0.2309886212        7.1862355206
  H         4.7520618548        4.1842653592       -0.7419674964
  H         5.2552078005        5.0189230208        0.3980287856
  H         3.5762751684        9.0920555076        2.0377617283
  H         2.7272074776        9.1314667712        3.2854892523
  H         9.0825380978        4.5051077796        9.0273059439
  H         9.2324061698        3.1497608492        9.7662848091
  H         1.9888832080        2.0817889717        1.9029052030
  H         1.8281716890        0.5452996127        2.1001694269
  H         7.4259979044        0.8589604274        7.4557076177
  H         6.5953801675        1.5515951348        8.5164861795
  H         2.4203625353        1.5856773539        8.9848630222
  H         2.2897920685        0.0981623597        9.2470336090
  H         1.1763070685        1.8305753154        4.1682345748
  H         0.3450992008        2.8643182125        4.8527394389
  H         5.7729486132        2.6173691660        0.3858824871
  H         7.2183912064        2.2811450146        0.5527504081
  H         3.2502040640        5.2384050542        5.9566731706
  H         3.3403300174        3.6987029550        5.9804410064
  H         5.3199068302        9.0473810289        6.0083544326
  H         5.0011851326        9.6777166543        7.3159908937
  H         4.5795306519        6.4097462698        3.3901331928
  H         3.2741616356        7.0998340314        2.9528180988
  H         3.8736764915        7.4546947255        6.8717228057
  H         3.8588947867        6.9728430976        8.2740611127
  H         5.9189278005        3.0883154781        5.4481846618
  H         5.3485477334        2.5083537928        6.7287663414
  H         5.0547949000        7.6877152371       10.1803470316
  H         6.1061624799        7.1231168159        9.2548371460
  H         1.6423796401        5.2089561815        4.1701918957
  H         0.4363401532        4.8933148269        3.3078608168
  H        10.0019056332        7.2358267914        3.6916867636
  H        10.6473765140        8.5906237034        3.6263974839
  H         8.0355705275        5.1296006059        2.1920286295
  H         8.0013520732        4.2917400154        3.4817173503
  H         1.8725324311        7.8595878253        7.8947967130
  H         0.8296296086        8.1944775806        8.9750648832
  H         8.2982068667       10.1261336446        2.2333189734
  H         8.6996474584        8.6659971383        2.4493943559
      96
 i =        3, time =        1.500, E =      -550.5376203658
  O         2.2894047332        9.1401122110        5.0851281125
  O         1.2560508379        2.4020710691        7.7661034328
  O         1.5934256783        6.9163633897        0.6493109588
  O         2.9688506256        3.7618052106        1.8809651048
  O         0.2395443362        5.8792951824        6.5337881879
  O         9.0265541225        6.1135103622        0.1000301871
  O         7.2556543761        8.4890483045        5.7763988337
  O         5.0811213884        9.4587577154        0.7382163923
  O         6.3230055009        7.3678343458        3.7402930451
  O         7.7625145942        8.3602218185        9.2741756199
  O         8.2780944849        3.8465493597        5.7932302034
  O         8.8813038505        2.0230033015        1.6697641463
  O         9.1598307598        0.2867085350        6.8627010293
  O         4.9578164009        4.1317761725        0.1786893695
  O         2.8013804025        8.7004869397        2.4347850267
  O         9.1352165462        3.5519576318        8.8769998790
  O         1.4526540388        1.3933052601        2.3647803862
  O         6.5336448870        1.1490242035        7.6106389681
  O         2.7714570084        0.8812118595        9.5431144327
  O         0.8525325601        2.0807848494        5.0138319770
  O         6.3900631818        1.9165116065        0.2542479999
  O         2.7249514259        4.4522420790        5.8463842333
  O         4.6076416937        9.2536275055        6.5709916480
  O         3.6479678779        6.2078616361        3.1584011205
  O         3.3637854515        6.9293421685        7.4705551132
  O         5.2963846396        3.2772460205        6.1620820802
  O         5.2278405443        6.9484420655        9.5847726832
  O         0.8482951652        5.5966926870        3.8196441918
  O         9.7746214802        8.1637327558        3.6605152179
  O         8.5026132334        4.4299817046        2.6763693837
  O         1.3368743154        8.5898115837        8.2768127642
  O         8.0491540814        9.2243928253        1.9958778386
  H         1.8070514868        9.8557044877        5.5599463648
  H         3.1207040597        9.0852444685        5.5805716340
  H         0.5823885667        3.0120742201        8.0780723506
  H         1.7502150256        2.9356728722        7.1721966121
  H         2.0792383691        6.1306891703        0.7890127570
  H         1.7681661732        7.5127240556        1.4418082452
  H         3.7660325300        3.8179719590        1.3370440391
  H         2.9771540936        4.5340818023        2.4787596725
  H         0.9562574424        5.2376561900        6.5315613892
  H         0.5058884629        6.5003392891        5.8545969177
  H         9.8605438147        6.4834786283        0.3898514523
  H         8.5546181499        6.8576511404       -0.3045529852
  H         7.8540406820        7.8957139195        6.2383247473
  H         7.7974363330        9.1360621843        5.2906555768
  H         4.4714052436        9.9852375167        0.1609024765
  H         5.7767559465       10.1438448245        0.9979410192
  H         6.6197565018        7.9196851410        3.0158622857
  H         6.7337875137        7.7360735221        4.5611488674
  H         7.7676250275        8.7507944254       10.1698717739
  H         7.8590964944        9.0800432116        8.6924144374
  H         8.3243489907        3.2628827731        6.5617439438
  H         8.5189967361        4.6967948441        6.1977279289
  H         9.7324823567        1.6886213299        1.8844184852
  H         8.7749902378        2.8725988980        2.0995001103
  H         9.5449635341        1.1669233803        6.6840889427
  H         9.9710151437       -0.2372484017        7.2003484228
  H         4.7514758669        4.1836498716       -0.7395308662
  H         5.2600262413        5.0248944653        0.3958426712
  H         3.5825957609        9.1006725416        2.0388797765
  H         2.7296740983        9.1254903011        3.2995566740
  H         9.0809659188        4.5168910926        9.0269226126
  H         9.2408728648        3.1402774369        9.7761554841
  H         1.9854388192        2.0950981795        1.8901566562
  H         1.8313949232        0.5327836015        2.1080526613
  H         7.4303514688        0.8608786506        7.4611444284
  H         6.6037669938        1.5596724941        8.5359137565
  H         2.4198896716        1.5938429147        8.9803952283
  H         2.2938320106        0.0934652931        9.2233164734
  H         1.1871973674        1.8340743599        4.1735741634
  H         0.3390408044        2.8638795102        4.8493456186
  H         5.7691303389        2.6139630262        0.3915711545
  H         7.2222776048        2.2933581855        0.5492736322
  H         3.2480279930        5.2401601019        5.9557363721
  H         3.3391745191        3.6816267826        5.9753995844
  H         5.3229489818        9.0328830017        6.0169496091
  H         5.0017737944        9.6845674690        7.3120163740
  H         4.5889494749        6.4087160263        3.3818490142
  H         3.2743524905        7.1196735175        2.9471665120
  H         3.8745841278        7.4695641783        6.8824633536
  H         3.8511382569        6.9760052879        8.2769544693
  H         5.9209412323        3.0744410044        5.4458099339
  H         5.3468889867        2.5106421165        6.7397678727
  H         5.0460735979        7.6929086457       10.1802623581
  H         6.1109469530        7.1308348180        9.2596207178
  H         1.6506642151        5.2194764827        4.1738606563
  H         0.4371174947        4.8840576741        3.3086110072
  H        10.0187559145        7.2327980435        3.6832040043
  H        10.6487555710        8.5975912258        3.6258195955
  H         8.0303665043        5.1328796478        2.1791698412
  H         8.0030109046        4.2921926138        3.4897139806
  H         1.8755570641        7.8545632424        7.8758172291
  H         0.8233613753        8.1955665415        8.9724816937
  H         8.2902024585       10.1358961571        2.2431806549
  H         8.7099050143        8.6623810857        2.4531598267
      96
 i =        4, time =        2.000, E =      -550.5514698229
  O         2.2921042502        9.1379970989        5.0836761101
  O         1.2577630845        2.4000492316        7.7649764713
  O         1.5921498865        6.9157687968        0.6468950248
  O         2.9721675554        3.7581844802        1.8822514118
  O         0.2426601719        5.8777851105        6.5345936027
  O         9.0271373099        6.1108826224        0.1025500345
  O         7.2551196645        8.4875598723        5.7778080482
  O         5.0780148746        9.4559954094        0.7368037280
  O         6.3200117587        7.3688243939        3.7376170252
  O         7.7619583815        8.3631559350        9.2725378042
  O         8.2771220510        3.8495480234        5.7909111860
  O         8.8814670791        2.0219267903        1.6711285959
  O         9.1596777704        0.2870195610        6.8600452435
  O         4.9564624962        4.1305647957        0.1808644029
  O         2.8005270371        8.7036330173        2.4342230240
  O         9.1391468847        3.5526167373        8.8770297258
  O         1.4521767857        1.3903646950        2.3670445936
  O         6.5322209198        1.1499258872        7.6110641797
  O         2.7734003322        0.8810523830        9.5430810856
  O         0.8512279838        2.0822339448        5.0155466116
  O         6.3916170588        1.9150376796        0.2579860506
  O         2.7218168873        4.4517210929        5.8450288795
  O         4.6092736134        9.2531691134        6.5691688148
  O         3.6420716359        6.2069424271        3.1583688746
  O         3.3604577643        6.9301860517        7.4684117697
  O         5.2989161616        3.2797247029        6.1643192878
  O         5.2283749145        6.9441691931        9.5853239503
  O         0.8487885165        5.5972594080        3.8191829129
  O         9.7707584522        8.1638238709        3.6613245216
  O         8.5002292684        4.4298282963        2.6750314732
  O         1.3366554468        8.5932434615        8.2779325244
  O         8.0470061986        9.2253150481        1.9971377729
  H         1.8208765177        9.8684858629        5.5697323305
  H         3.1348136651        9.0783430651        5.5817919957
  H         0.5837300907        3.0265355037        8.0824966734
  H         1.7486796325        2.9336961554        7.1611548145
  H         2.0738730443        6.1227937147        0.7878969709
  H         1.7661667361        7.5282703640        1.4459840364
  H         3.7737662587        3.8168672276        1.3289593293
  H         2.9675363664        4.5406107619        2.4849111262
  H         0.9666276774        5.2316048271        6.5178336047
  H         0.5033319911        6.4962979885        5.8430898675
  H         9.8722242883        6.4832644715        0.3914651280
  H         8.5512223972        6.8615455561       -0.3106819520
  H         7.8465676132        7.8790303582        6.2418174507
  H         7.8022786225        9.1362078999        5.2832660331
  H         4.4697995630        9.9913619052        0.1398222631
  H         5.7818773714       10.1561758484        0.9959962175
  H         6.6108885880        7.9242286947        3.0045902272
  H         6.7422951363        7.7347198067        4.5718661059
  H         7.7733957725        8.7549651384       10.1832832896
  H         7.8701685000        9.0843916522        8.6881680310
  H         8.3274250170        3.2747621841        6.5755689995
  H         8.5255871012        4.7068757789        6.2003633986
  H         9.7434840946        1.6786709634        1.8742870362
  H         8.7657108001        2.8796408376        2.1049439888
  H         9.5610300056        1.1713033668        6.6773407351
  H         9.9859233228       -0.2427318353        7.2146389306
  H         4.7496806728        4.1831748818       -0.7413621288
  H         5.2653355687        5.0337943269        0.3938875040
  H         3.5923573113        9.1101801858        2.0372316960
  H         2.7315426912        9.1202381066        3.3179894257
  H         9.0794657151        4.5310162932        9.0277560378
  H         9.2490993015        3.1309080563        9.7852751661
  H         1.9823319346        2.1084601907        1.8782245746
  H         1.8351409449        0.5195435268        2.1150749943
  H         7.4386920514        0.8611145449        7.4645917737
  H         6.6109669259        1.5672876744        8.5548976133
  H         2.4180582341        1.6035027542        8.9745041860
  H         2.2969147938        0.0871049232        9.1984065811
  H         1.2003838778        1.8356567919        4.1729661413
  H         0.3307113274        2.8663791351        4.8463494431