      96
 i =        0, time =        0.000, E =      -550.5239948772
  O        -0.0157794995       -0.0125400749       -0.0309661899
  O         0.0267542540       -0.0324558726       -0.0019290107
  O        -0.0122220559        0.0019530993       -0.0181195815
  O        -0.0315672463       -0.0240531346        0.0009961962
  O        -0.0288990275        0.0055761578        0.0190657899
  O        -0.0217800446       -0.0417318331        0.0039218300
  O        -0.0237299603       -0.0022742377        0.0028287449
  O        -0.0107998493       -0.0367180733        0.0182739426
  O        -0.0291377115       -0.0344057379       -0.0293980514
  O        -0.0052479883       -0.0273591021       -0.0204317375
  O        -0.0077141433       -0.0145552626       -0.0307517836
  O        -0.0357565469       -0.0136787328       -0.0259411584
  O        -0.0374395796       -0.0046947690       -0.0045240503
  O        -0.0023741919       -0.0258341521        0.0109216141
  O        -0.0227685101       -0.0158445745       -0.0142828462
  O        -0.0059700051       -0.0172621102       -0.0261282914
  O        -0.0252024338       -0.0020523893        0.0210524315
  O        -0.0265779347       -0.0070516122       -0.0280891067
  O         0.0328431120       -0.0027777669        0.0332575545
  O         0.0027623363       -0.0103874037        0.0224961316
  O         0.0029716337       -0.0330997030       -0.0062960993
  O        -0.0375363387        0.0020733838       -0.0075089317
  O        -0.0326873354       -0.0139056516       -0.0163335656
  O        -0.0127835234       -0.0359472547       -0.0001477602
  O        -0.0339656587       -0.0214651739       -0.0142623442
  O        -0.0250858540        0.0206734340        0.0011405388
  O        -0.0198405213       -0.0417238524       -0.0081480399
  O        -0.0036261092        0.0217773626       -0.0032403000
  O        -0.0279709931        0.0209422538       -0.0037671692
  O         0.0132522968       -0.0118326041       -0.0027799679
  O        -0.0161928807        0.0420377583       -0.0042879979
  O        -0.0369743718       -0.0084824685       -0.0238852456
  H        -0.0134175532        0.0178812203        0.0073105454
  H         0.0287491284        0.0023720903        0.0197711515
  H        -0.0308584106        0.0202394074        0.0212058223
  H         0.0105366230        0.0092406395       -0.0183587926
  H         0.0098736964       -0.0201967288        0.0016641348
  H         0.0068743578        0.0186733295        0.0199088357
  H         0.0198365180        0.0012009318       -0.0208058227
  H         0.0041457258        0.0228227286        0.0189223433
  H         0.0204763982       -0.0156244618       -0.0015498538
  H         0.0045194849        0.0093068559       -0.0144030026
  H         0.0341735123        0.0066606921        0.0108494045
  H        -0.0155956025        0.0242618358       -0.0142489654
  H         0.0126422314       -0.0095790212        0.0112538667
  H         0.0186034748        0.0170457721       -0.0037464600
  H        -0.0247801937        0.0182187743       -0.0190239174
  H         0.0204289251        0.0185843108        0.0029846337
  H         0.0070801876        0.0137998600       -0.0187683389
  H         0.0127647868        0.0102397647        0.0318688877
  H         0.0022042430        0.0137584688        0.0396592081
  H         0.0015160389        0.0132932839       -0.0182873181
  H        -0.0027249212       -0.0114481483        0.0162482886
  H         0.0151131293        0.0250095158        0.0070637458
  H         0.0408579924       -0.0136422826        0.0041523409
  H        -0.0079308744        0.0324530916        0.0149378084
  H         0.0177852665        0.0221454737       -0.0063539636
  H         0.0249194679       -0.0190040207        0.0176081608
  H        -0.0058622072        0.0014289303       -0.0184460569
  H         0.0071076007        0.0323286100        0.0030791840
  H         0.0311785435        0.0085857573       -0.0225955495
  H        -0.0048236993        0.0093799666        0.0413211224
  H        -0.0009198335        0.0389155631        0.0085622100
  H         0.0016604877       -0.0156232610        0.0233645587
  H         0.0205096357        0.0303648946       -0.0106332420
  H         0.0079431225       -0.0238422019       -0.0097751287
  H         0.0277230337       -0.0116112373       -0.0126336614
  H        -0.0034537785        0.0149106821        0.0383964024
  H        -0.0171029816        0.0223963623       -0.0209183246
  H        -0.0155255466       -0.0253612137       -0.0155142023
  H         0.0105389219       -0.0093205206       -0.0287570249
  H        -0.0143648820        0.0186683788        0.0042139921
  H        -0.0206563471        0.0283683315        0.0004935144
  H         0.0272099558        0.0016639785        0.0102570323
  H         0.0112116947        0.0188927266        0.0096254336
  H         0.0245013131       -0.0176839169       -0.0040915056
  H         0.0226094456       -0.0035503724       -0.0093117052
  H         0.0136914924        0.0151532116        0.0182296941
  H         0.0294144853        0.0074086537        0.0074280904
  H        -0.0112335135        0.0260232286       -0.0062255438
  H         0.0123312990        0.0212729601       -0.0093914997
  H         0.0214070975        0.0000857788        0.0264596953
  H         0.0135427297        0.0012722314       -0.0091693401
  H         0.0105958590       -0.0223224008        0.0128444585
  H        -0.0011987105        0.0294219915        0.0158070431
  H         0.0232969315        0.0119407638       -0.0081688131
  H         0.0257365704       -0.0056398666        0.0155500522
  H        -0.0210769350       -0.0105180870       -0.0141303701
  H         0.0103903895       -0.0356244450        0.0013017558
  H         0.0176251787        0.0085204703        0.0055815981
  H        -0.0030803645        0.0180247034       -0.0180274679
  H        -0.0070215188       -0.0035050354        0.0256679424
  H         0.0265342814       -0.0250055059       -0.0137617486
  H        -0.0089183875       -0.0106115560        0.0136377840
  H         0.0026455153        0.0307655452       -0.0013557324
  H         0.0271647830       -0.0210623384        0.0212980082
      96
 i =        1, time =        0.500, E =      -550.5213438655
  O        -0.0198788332       -0.0069868309       -0.0270597858
  O         0.0237554099       -0.0404112127        0.0034707070
  O        -0.0176946091        0.0230604800       -0.0089200037
  O        -0.0328786785       -0.0229639063        0.0032817565
  O        -0.0305762613        0.0054968665        0.0209683818
  O        -0.0271838141       -0.0433346604        0.0020103726
  O        -0.0248277469        0.0000667825        0.0001998034
  O        -0.0043969650       -0.0213943244        0.0186342777
  O        -0.0284061343       -0.0347361229       -0.0216120414
  O        -0.0064077753       -0.0387350187       -0.0086770203
  O        -0.0070894478       -0.0127120781       -0.0284707925
  O        -0.0488738469       -0.0132734327       -0.0326334436
  O        -0.0201566832       -0.0116263809        0.0012310731
  O        -0.0001503167       -0.0265866571        0.0197043143
  O        -0.0255205532       -0.0186137245       -0.0147493752
  O        -0.0053460638       -0.0194422671       -0.0175237350
  O        -0.0189019770        0.0034515386        0.0157759950
  O        -0.0315444933        0.0017162272       -0.0115293852
  O         0.0311070556       -0.0029373175        0.0311833707
  O         0.0013845301       -0.0112673458        0.0354800698
  O         0.0079327631       -0.0416915080       -0.0082567325
  O        -0.0356260990       -0.0104039737       -0.0069308122
  O        -0.0485340578       -0.0153130207       -0.0142389592
  O        -0.0117471394       -0.0209252871       -0.0011884425
  O        -0.0433635117       -0.0255901872       -0.0183030435
  O        -0.0231495366        0.0222645238       -0.0029466035
  O        -0.0228340778       -0.0419292943       -0.0064742769
  O        -0.0089630944        0.0233930459       -0.0057646605
  O        -0.0231379042        0.0264882770       -0.0042049570
  O         0.0111699856       -0.0076296849       -0.0072821241
  O        -0.0077746841        0.0391296049       -0.0125410750
  O        -0.0341298339       -0.0077857299       -0.0221057086
  H        -0.0102184557        0.0128670268        0.0035313881
  H         0.0295400903        0.0016536594        0.0194364843
  H        -0.0350447799        0.0222957739        0.0236917338
  H         0.0178091745        0.0148553642       -0.0262737800
  H         0.0176565925       -0.0312266829        0.0048159296
  H         0.0049499823        0.0087687760        0.0076126900
  H         0.0202391862        0.0023281072       -0.0202665746
  H         0.0049120957        0.0204535793        0.0160774607
  H         0.0222485646       -0.0179102977       -0.0012316926
  H         0.0044335436        0.0116136143       -0.0165840738
  H         0.0391111225        0.0089115171        0.0125493296
  H        -0.0156301984        0.0241048915       -0.0141243355
  H         0.0145346924       -0.0093201062        0.0113675639
  H         0.0179090568        0.0139858562       -0.0012262550
  H        -0.0203073657        0.0138032739       -0.0145898713
  H         0.0093692085        0.0075735069       -0.0013586692
  H         0.0085864236        0.0161354005       -0.0205570587
  H         0.0102247485        0.0084641033        0.0259283866
  H         0.0021234753        0.0129809425        0.0380680506
  H         0.0029255618        0.0253552944       -0.0282262525
  H        -0.0029610996       -0.0132993665        0.0159904410
  H         0.0147353961        0.0247494498        0.0050387860
  H         0.0535082697       -0.0178482708        0.0084487456
  H        -0.0072609913        0.0366608957        0.0177528866
  H         0.0158843277        0.0191185039       -0.0059395220
  H         0.0094781662       -0.0094083913        0.0118215328
  H        -0.0080413033        0.0014126906       -0.0279538382
  H         0.0073453670        0.0330051702        0.0037593281
  H         0.0344643420        0.0101451948       -0.0251874482
  H        -0.0055236745        0.0104825985        0.0442053572
  H        -0.0006482408        0.0359442278        0.0094746785
  H         0.0006130840       -0.0104371153        0.0139305766
  H         0.0148699753        0.0212069284       -0.0057233255
  H         0.0075680741       -0.0198519171       -0.0093776098
  H         0.0342035030       -0.0140371322       -0.0151056431
  H        -0.0055712164        0.0086165578        0.0239957525
  H        -0.0162082207        0.0217224704       -0.0197023725
  H        -0.0147404499       -0.0245587709       -0.0147610856
  H         0.0154587622       -0.0135304851       -0.0411332531
  H        -0.0178630841        0.0237795450        0.0035282135
  H        -0.0290226975        0.0362024291        0.0017060823
  H         0.0305846546        0.0024683946        0.0111499414
  H         0.0154601349        0.0225821130        0.0102216319
  H         0.0184663104       -0.0085865947       -0.0053627032
  H         0.0346568572       -0.0070383729       -0.0195742522
  H         0.0176785352        0.0200936266        0.0266193708
  H         0.0226633414        0.0055905857        0.0057810610
  H        -0.0054971657        0.0128479628       -0.0034296026
  H         0.0164322526        0.0257270356       -0.0158984259
  H         0.0264577812       -0.0002244365        0.0366322827
  H         0.0112668003        0.0015381604       -0.0068147366
  H         0.0109125301       -0.0242830054        0.0145315046
  H        -0.0014240040        0.0291151433        0.0156833010
  H         0.0267329753        0.0124816482       -0.0096827440
  H         0.0306842005       -0.0078385906        0.0173783180
  H        -0.0206368537       -0.0097192739       -0.0135770127
  H         0.0102123278       -0.0405933437        0.0013813088
  H         0.0129642349        0.0079240824        0.0058697830
  H        -0.0001446288        0.0130748803       -0.0139456681
  H        -0.0079054338       -0.0029204473        0.0260732226
  H         0.0210457532       -0.0188203445       -0.0098855569
  H        -0.0116152896       -0.0136785582        0.0179251026
  H         0.0020868067        0.0280256812       -0.0019370116
  H         0.0249120827       -0.0192066456        0.0199498362
      96
 i =        2, time =        1.000, E =      -550.5260327709
  O        -0.0208123716       -0.0004497619       -0.0201687815
  O         0.0188585218       -0.0428163898        0.0083491595
  O        -0.0209230488        0.0402779656        0.0003517466
  O        -0.0313101532       -0.0192626841        0.0055311747
  O        -0.0286550364        0.0048376775        0.0210821940
  O        -0.0300943361       -0.0403855428        0.0000648491
  O        -0.0227826629        0.0023696515       -0.0022446561
  O        -0.0005379066       -0.0054118022        0.0168863620
  O        -0.0254102457       -0.0320040640       -0.0139842958
  O        -0.0076396375       -0.0452264930        0.0044141463
  O        -0.0054877015       -0.0098882166       -0.0227418344
  O        -0.0564101774       -0.0107798850       -0.0351282335
  O        -0.0030404704       -0.0150349218        0.0061192680
  O         0.0026488342       -0.0235715575        0.0259553560
  O        -0.0245249607       -0.0168981769       -0.0129011755
  O        -0.0045693396       -0.0180410378       -0.0073100511
  O        -0.0109539642        0.0080484967        0.0087632086
  O        -0.0317874299        0.0089584474        0.0040912541
  O         0.0260823289       -0.0036115137        0.0257385494
  O        -0.0001692315       -0.0108788567        0.0429435916
  O         0.0127587138       -0.0448556492       -0.0083670296
  O        -0.0310957638       -0.0209603176       -0.0058137562
  O        -0.0588617162       -0.0153207242       -0.0118224840
  O        -0.0082256464       -0.0056392870       -0.0016889411
  O        -0.0474203197       -0.0272085700       -0.0208238582
  O        -0.0200322284        0.0203114030       -0.0059807010
  O        -0.0229135589       -0.0385209605       -0.0038970028
  O        -0.0118251162        0.0213057986       -0.0081430956
  O        -0.0159291139        0.0271385170       -0.0044271601
  O         0.0068279252       -0.0030719059       -0.0097276320
  O         0.0002821543        0.0331373947       -0.0196575451
  O        -0.0280315250       -0.0067316578       -0.0177680313
  H        -0.0061872485        0.0064865680       -0.0011783531
  H         0.0264440816        0.0013972748        0.0169428481
  H        -0.0349287889        0.0209988464        0.0241766203
  H         0.0225236905        0.0183088237       -0.0315378115
  H         0.0228695615       -0.0384293339        0.0074145326
  H         0.0032982502       -0.0011062111       -0.0041787574
  H         0.0175756659        0.0034142557       -0.0177184860
  H         0.0057971911        0.0154904365        0.0111367665
  H         0.0211275283       -0.0175982088       -0.0010996814
  H         0.0035721912        0.0118556128       -0.0167764855
  H         0.0394418293        0.0092960477        0.0125059585
  H        -0.0134859758        0.0211570482       -0.0122735598
  H         0.0145743193       -0.0074312815        0.0100654513
  H         0.0159036073        0.0092875372        0.0024826963
  H        -0.0141957950        0.0080076946       -0.0083262844
  H        -0.0010586736       -0.0028128998       -0.0054570248
  H         0.0089619668        0.0163577923       -0.0195131533
  H         0.0065416507        0.0057190719        0.0173445562
  H         0.0021834272        0.0106108377        0.0322586531
  H         0.0042909538        0.0340702285       -0.0351191498
  H        -0.0033234127       -0.0130190738        0.0134553146
  H         0.0136566197        0.0214359797        0.0017545713
  H         0.0599439664       -0.0194676155        0.0108211241
  H        -0.0059190530        0.0362287553        0.0182116486
  H         0.0129794484        0.0133858471       -0.0047974335
  H        -0.0048356783       -0.0006791216        0.0062633316
  H        -0.0095127325        0.0013522709       -0.0337813440
  H         0.0062374625        0.0299580352        0.0033006864
  H         0.0332758669        0.0096745445       -0.0250368955
  H        -0.0055115244        0.0092000093        0.0421327293
  H        -0.0001693622        0.0288215906        0.0098384765
  H        -0.0006388188       -0.0046249250        0.0035561860
  H         0.0085451080        0.0106888037        0.0003982400
  H         0.0062061449       -0.0135042589       -0.0083453404
  H         0.0358937269       -0.0147593889       -0.0162404767
  H        -0.0076870048        0.0020974848        0.0093493673
  H        -0.0140691065        0.0180424706       -0.0163986974
  H        -0.0119504009       -0.0203043409       -0.0128083443
  H         0.0185201738       -0.0158019442       -0.0483161416
  H        -0.0193473699        0.0256585736        0.0031681318
  H        -0.0333562858        0.0398728595        0.0022302068
  H         0.0302326596        0.0019972691        0.0107830944
  H         0.0176266892        0.0232248538        0.0104719855
  H         0.0119231707        0.0016876537       -0.0067768574
  H         0.0430709642       -0.0099624044       -0.0263541666
  H         0.0198264372        0.0230061247        0.0311202097
  H         0.0136846009        0.0034993837        0.0036528331
  H         0.0000469459       -0.0002849293       -0.0007241455
  H         0.0182376051        0.0279588358       -0.0190080496
  H         0.0284791040       -0.0007114344        0.0419903204
  H         0.0079334329        0.0022277335       -0.0030899517
  H         0.0110347970       -0.0231427511        0.0138407416
  H        -0.0008299481        0.0257707130        0.0130856624
  H         0.0264534506        0.0125353676       -0.0096353408
  H         0.0315965063       -0.0082925705        0.0173535700
  H        -0.0186937726       -0.0068953501       -0.0113223496
  H         0.0090858385       -0.0398703725        0.0011447039
  H         0.0068553020        0.0064204782        0.0062181361
  H         0.0034423273        0.0070351414       -0.0089064643
  H        -0.0070883000       -0.0016310328        0.0235265535
  H         0.0143342885       -0.0107629127       -0.0046244453
  H        -0.0126024116       -0.0154736913        0.0196281763
  H         0.0009081564        0.0222515663       -0.0034058332
  H         0.0200552016       -0.0146826104        0.0167949378
      96
 i =        3, time =        1.500, E =      -550.5376203658
  O        -0.0185473292        0.0061309460       -0.0114204777
  O         0.0134290820       -0.0386285003        0.0114937984
  O        -0.0210449323        0.0506297216        0.0085966262
  O        -0.0275809133       -0.0138749319        0.0072927029
  O        -0.0233677335        0.0035677399        0.0192027618
  O        -0.0299339238       -0.0334270792       -0.0015580121
  O        -0.0182210739        0.0038756656       -0.0041678675
  O         0.0010103458        0.0095081894        0.0136007947
  O        -0.0208324080       -0.0269878236       -0.0080285524
  O        -0.0084316491       -0.0451860218        0.0157693462
  O        -0.0031704389       -0.0063848873       -0.0142711961
  O        -0.0563516606       -0.0071282418       -0.0331559292
  O         0.0122832671       -0.0151434403        0.0099402735
  O         0.0053736695       -0.0172718951        0.0282283210
  O        -0.0200528115       -0.0111529436       -0.0087993475
  O        -0.0038798437       -0.0136667212        0.0025737478
  O        -0.0028986160        0.0111572411        0.0013782799
  O        -0.0270604718        0.0137003604        0.0169669571
  O         0.0187632250       -0.0046659604        0.0175292987
  O        -0.0012210534       -0.0093531311        0.0428250256
  O         0.0161289262       -0.0414774754       -0.0064539450
  O        -0.0246670494       -0.0276632492       -0.0044466556
  O        -0.0609691397       -0.0142926352       -0.0095644870
  O        -0.0027944520        0.0082295166       -0.0018255159
  O        -0.0451062830       -0.0256367632       -0.0208261262
  O        -0.0163386662        0.0152846217       -0.0075192783
  O        -0.0201279286       -0.0320041980       -0.0007423600
  O        -0.0115777752        0.0160276936       -0.0097634833
  O        -0.0070600528        0.0228503441       -0.0046033418
  O         0.0010494125        0.0011544934       -0.0098818992
  O         0.0064484981        0.0252342138       -0.0243988655
  O        -0.0198428577       -0.0054356752       -0.0118309828
  H        -0.0021049664       -0.0003013363       -0.0061732157
  H         0.0202290646        0.0016033557        0.0127678725
  H        -0.0306781322        0.0163381031        0.0226415111
  H         0.0235676259        0.0185322383       -0.0328991483
  H         0.0244114225       -0.0399631683        0.0090968683
  H         0.0021767413       -0.0098270763       -0.0139748152
  H         0.0124636184        0.0043448667       -0.0135633314
  H         0.0068840279        0.0089863199        0.0050198456
  H         0.0173099084       -0.0147380330       -0.0010225870
  H         0.0020053796        0.0101244609       -0.0149066142
  H         0.0350431118        0.0077477583        0.0107272953
  H        -0.0096289146        0.0160399008       -0.0090227531
  H         0.0129244767       -0.0039755452        0.0075387968
  H         0.0130761966        0.0037814174        0.0068493932
  H        -0.0077561282        0.0017015316       -0.0012119547
  H        -0.0097488774       -0.0116378048       -0.0088605880
  H         0.0083168190        0.0145645424       -0.0156675741
  H         0.0022565473        0.0027362449        0.0076447161
  H         0.0022848219        0.0072830369        0.0234131207
  H         0.0051774714        0.0371324740       -0.0370920787
  H        -0.0037883010       -0.0110344037        0.0089653624
  H         0.0120669345        0.0157795499       -0.0023929454
  H         0.0580578428       -0.0176327948        0.0110113861
  H        -0.0038415481        0.0311795145        0.0163216490
  H         0.0093360107        0.0060846879       -0.0032745787
  H        -0.0166581162        0.0063086972        0.0014432463
  H        -0.0098261682        0.0011417026       -0.0346814578
  H         0.0039890102        0.0237967031        0.0018767077
  H         0.0279616755        0.0072372161       -0.0224779248
  H        -0.0048596520        0.0058855587        0.0354732449
  H         0.0005848803        0.0190304858        0.0098875225
  H        -0.0019523704        0.0009266360       -0.0061026673
  H         0.0027426037        0.0004290874        0.0066347033
  H         0.0042482404       -0.0058838359       -0.0069957972
  H         0.0323990332       -0.0136708266       -0.0161666572
  H        -0.0096448579       -0.0037557268       -0.0036057281
  H        -0.0110399489        0.0121427048       -0.0115655024
  H        -0.0077779993       -0.0135162219       -0.0096924976
  H         0.0186593166       -0.0155746450       -0.0483310668
  H        -0.0184550994        0.0238772336        0.0032313137
  H        -0.0324833608        0.0383289566        0.0017467740
  H         0.0262475988        0.0000986552        0.0093119713
  H         0.0174036342        0.0204751824        0.0103398280
  H         0.0058713081        0.0115654107       -0.0080247377
  H         0.0456181843       -0.0112641429       -0.0279813308
  H         0.0196551687        0.0231872063        0.0305136182
  H         0.0038208514        0.0013684934        0.0015410707
  H         0.0045944712       -0.0118950251        0.0016101498
  H         0.0172594679        0.0272919505       -0.0182726551
  H         0.0269590243       -0.0014023495        0.0410392922
  H         0.0040773243        0.0032344476        0.0013653251
  H         0.0110775873       -0.0192486644        0.0109416228
  H         0.0005460542        0.0200550084        0.0085405748
  H         0.0225087332        0.0119582295       -0.0081956415
  H         0.0281988973       -0.0070145163        0.0153455221
  H        -0.0156180117       -0.0025421368       -0.0078428470
  H         0.0068060705       -0.0338292533        0.0007789856
  H         0.0002151176        0.0043975568        0.0065956027
  H         0.0071203430        0.0008253709       -0.0035520088
  H        -0.0048370195        0.0001494960        0.0184367144
  H         0.0075425658       -0.0023701953        0.0011914150
  H        -0.0114977928       -0.0156524908        0.0183464821
  H        -0.0005865243        0.0145520136       -0.0055300592
  H         0.0134594122       -0.0084835283        0.0125718160
      96
 i =        4, time =        2.000, E =      -550.5514698229
  O        -0.0137465714        0.0119995517       -0.0021459736
  O         0.0088690622       -0.0286740808        0.0120255863
  O        -0.0178690003        0.0528503186        0.0154084459
  O        -0.0226562082       -0.0078139714        0.0082989039
  O        -0.0157020300        0.0019324500        0.0154538648
  O        -0.0270491895       -0.0239322468       -0.0027843561
  O        -0.0122245256        0.0042649772       -0.0054357414
  O         0.0007930107        0.0221178577        0.0095044199
  O        -0.0155378406       -0.0206440834       -0.0044158895
  O        -0.0083359561       -0.0385977841        0.0230227564
  O        -0.0004312421       -0.0026696025       -0.0041952667
  O        -0.0492690769       -0.0033364296       -0.0277981979
  O         0.0249978128       -0.0128371823        0.0127314259
  O         0.0075410977       -0.0089124493        0.0259610584
  O        -0.0130667793       -0.0028710474       -0.0032239578
  O        -0.0032950986       -0.0075230039        0.0109962565
  O         0.0041838760        0.0128068644       -0.0054250430
  O        -0.0183372130        0.0157638382        0.0264465947
  O         0.0105115208       -0.0058837708        0.0077327863
  O        -0.0013049953       -0.0070188301        0.0353284676
  O         0.0173469702       -0.0323112827       -0.0030102548
  O        -0.0171416109       -0.0299748268       -0.0030530652
  O        -0.0543047564       -0.0128282249       -0.0079645585
  O         0.0035517646        0.0196704723       -0.0018217065
  O        -0.0369789610       -0.0209061965       -0.0182220960
  O        -0.0126397587        0.0080723898       -0.0074800000
  O        -0.0150187690       -0.0234210892        0.0024057754
  O        -0.0084390124        0.0087929578       -0.0103530600
  O         0.0025126838        0.0149489628       -0.0048702684
  O        -0.0051253544        0.0045035827       -0.0079897820
  O         0.0099002526        0.0166067463       -0.0263389689
  O        -0.0110281810       -0.0040492570       -0.0053808255
  H         0.0014286306       -0.0066591687       -0.0108802736
  H         0.0121657198        0.0021771066        0.0076842713
  H        -0.0235732582        0.0092598215        0.0195676862
  H         0.0208167409        0.0154019165       -0.0299567330
  H         0.0220295029       -0.0352051090        0.0096449837
  H         0.0016087255       -0.0167788055       -0.0211438828
  H         0.0059014994        0.0050726559       -0.0084562015
  H         0.0081607078        0.0020286184       -0.0013250275
  H         0.0115502044       -0.0099885240       -0.0008296729
  H        -0.0000280277        0.0068312401       -0.0112721631
  H         0.0270217980        0.0047533233        0.0076953559
  H        -0.0047943409        0.0097638664       -0.0049270506
  H         0.0101087650        0.0006032817        0.0042305545
  H         0.0099645620       -0.0017590421        0.0112906243
  H        -0.0019815880       -0.0042944259        0.0058379567
  H        -0.0161861381       -0.0184356912       -0.0113595085
  H         0.0069633675        0.0111869311       -0.0096513294
  H        -0.0020465894        0.0000628936       -0.0018645537
  H         0.0023743205        0.0037494670        0.0132879770
  H         0.0051872929        0.0337632115       -0.0335281799
  H        -0.0043302775       -0.0079561190        0.0031408195
  H         0.0102167012        0.0088561567       -0.0068631260
  H         0.0485484361       -0.0125971109        0.0095774008
  H        -0.0011596544        0.0227595935        0.0126443952
  H         0.0053246678       -0.0016303486       -0.0016302174
  H        -0.0255506432        0.0113239349       -0.0024624738
  H        -0.0089304309        0.0007614907       -0.0304653933
  H         0.0010274616        0.0157525621       -0.0001264657
  H         0.0197226328        0.0033899640       -0.0182299762
  H        -0.0038087364        0.0014753860        0.0257023169
  H         0.0015374728        0.0083323845        0.0097680219
  H        -0.0032021712        0.0056775067       -0.0140751831
  H        -0.0018695200       -0.0085213581        0.0122558722
  H         0.0020935737        0.0018890848       -0.0055969974
  H         0.0245605879       -0.0110244767       -0.0151964392
  H        -0.0113001156       -0.0084995481       -0.0139344876
  H        -0.0076389127        0.0051747493       -0.0060728793
  H        -0.0030833602       -0.0055466332       -0.0057077123
  H         0.0155756357       -0.0129703088       -0.0413817423
  H        -0.0153660316        0.0188851131        0.0037018815