2.280397891998291016e+00 9.146538734436035156e+00 5.088696002960205078e+00 1.251703023910522461e+00 2.406260967254638672e+00 7.769907951354980469e+00 1.596302032470703125e+00 6.920127868652343750e+00 6.566950082778930664e-01 2.957518100738525391e+00 3.771867990493774414e+00 1.877387046813964844e+00 2.289720028638839722e-01 5.884026050567626953e+00 6.532308101654052734e+00 9.023430824279785156e+00 6.119654178619384766e+00 9.245099872350692749e-02 7.256289005279541016e+00 8.493640899658203125e+00 5.772040843963623047e+00 5.090422153472900391e+00 9.467016220092773438e+00 7.431769967079162598e-01 6.330887794494628906e+00 7.363471031188964844e+00 3.747750043869018555e+00 7.763819217681884766e+00 8.349367141723632812e+00 9.279457092285156250e+00 8.280797958374023438e+00 3.837152957916259766e+00 5.799282073974609375e+00 8.878250122070312500e+00 2.025796890258789062e+00 1.664101958274841309e+00 9.160371780395507812e+00 2.851000130176544189e-01 6.871004104614257812e+00 4.962042808532714844e+00 4.134437084197998047e+00 1.733759939670562744e-01 2.802896022796630859e+00 8.690382957458496094e+00 2.435951948165893555e+00 9.123223304748535156e+00 3.549232006072998047e+00 8.876721382141113281e+00 1.453701972961425781e+00 1.402537941932678223e+00 2.358278036117553711e+00 6.536550045013427734e+00 1.146790027618408203e+00 7.609732151031494141e+00 2.766709089279174805e+00 8.815029859542846680e-01 9.544262886047363281e+00 8.564260005950927734e-01 2.075963973999023438e+00 5.010624885559082031e+00 6.386035919189453125e+00 1.918949961662292480e+00 2.426899969577789307e-01 2.733022928237915039e+00 4.452755928039550781e+00 5.850203037261962891e+00 4.600039005279541016e+00 9.254314422607421875e+00 6.575943946838378906e+00 3.665373086929321289e+00 6.210560798645019531e+00 3.158420085906982422e+00 3.371648073196411133e+00 6.925593852996826172e+00 7.476036071777343750e+00 5.287919998168945312e+00 3.270653009414672852e+00 6.155079841613769531e+00 5.225236892700195312e+00 6.959593772888183594e+00 9.582990646362304688e+00 8.462929725646972656e-01 5.595877170562744141e+00 3.820630073547363281e+00 9.785619735717773438e+00 8.164616584777832031e+00 3.657879114151000977e+00 8.509982109069824219e+00 4.430362224578857422e+00 2.679945945739746094e+00 1.337625026702880859e+00 8.580920219421386719e+00 8.272483825683593750e+00 8.054436683654785156e+00 9.221335411071777344e+00 1.991376042366027832e+00 1.762019038200378418e+00 9.820428848266601562e+00 5.528453826904296875e+00 3.095987081527709961e+00 9.107088088989257812e+00 5.588185787200927734e+00 5.541290044784545898e-01 2.982634067535400391e+00 8.082023620605468750e+00 1.771257042884826660e+00 2.954778909683227539e+00 7.182180881500244141e+00 2.112148046493530273e+00 6.126320838928222656e+00 7.981359958648681641e-01 1.776389002799987793e+00 7.463263988494873047e+00 1.424029946327209473e+00 3.754249095916748047e+00 3.824017047882080078e+00 1.349436044692993164e+00 3.010580062866210938e+00 4.524141788482666016e+00 2.466877937316894531e+00 9.394749999046325684e-01 5.243834018707275391e+00 6.571945190429687500e+00 5.157229900360107422e-01 6.520547866821289062e+00 5.877445220947265625e+00 9.852959632873535156e+00 6.490365982055664062e+00 3.935930132865905762e-01 8.556008338928222656e+00 6.860063076019287109e+00 -2.942560017108917236e-01 7.886607170104980469e+00 7.941320896148681641e+00 6.234506130218505859e+00 7.793855190277099609e+00 9.141028404235839844e+00 5.315813064575195312e+00 4.467366218566894531e+00 9.971161842346191406e+00 2.198510020971298218e-01 5.758685111999511719e+00 1.010279464721679688e+01 9.989939928054809570e-01 6.652692794799804688e+00 7.917442798614501953e+00 3.036561965942382812e+00 6.711966037750244141e+00 7.743594169616699219e+00 4.539278984069824219e+00 7.751955032348632812e+00 8.745180130004882812e+00 1.015090465545654297e+01 7.829207897186279297e+00 9.092211723327636719e+00 8.679343223571777344e+00 8.312540054321289062e+00 3.218329906463623047e+00 6.528858184814453125e+00 8.508854866027832031e+00 4.680698871612548828e+00 6.189990043640136719e+00 9.742248535156250000e+00 1.704975008964538574e+00 1.922580957412719727e+00 8.799059867858886719e+00 2.876411914825439453e+00 2.095860958099365234e+00 9.505359649658203125e+00 1.161677002906799316e+00 6.701212882995605469e+00 9.920117378234863281e+00 -2.197940051555633545e-01 7.161005973815917969e+00 4.749903202056884766e+00 4.186003208160400391e+00 -7.585949897766113281e-01 5.248010158538818359e+00 5.018414974212646484e+00 4.036760032176971436e-01 3.576065063476562500e+00 9.078451156616210938e+00 2.026263952255249023e+00 2.720237970352172852e+00 9.146973609924316406e+00 3.273164033889770508e+00 9.085560798645019531e+00 4.493058204650878906e+00 9.031660079956054688e+00 9.215391159057617188e+00 3.166305065155029297e+00 9.749133110046386719e+00 1.999704957008361816e+00 2.060410976409912109e+00 1.927796006202697754e+00 1.824183940887451172e+00 5.645650029182434082e-01 2.081195116043090820e+00 7.430334091186523438e+00 8.497639894485473633e-01 7.438978195190429688e+00 6.576028823852539062e+00 1.537016987800598145e+00 8.482885360717773438e+00 2.415851116180419922e+00 1.576460003852844238e+00 8.987338066101074219e+00 2.276957035064697266e+00 9.953700006008148193e-02 9.289499282836914062e+00 1.160987019538879395e+00 1.818022966384887695e+00 4.140602111816406250e+00 3.502559959888458252e-01 2.874437093734741211e+00 4.860741138458251953e+00 5.768804073333740234e+00 2.638449907302856445e+00 3.752639889717102051e-01 7.221823215484619141e+00 2.257513999938964844e+00 5.637300014495849609e-01 3.260797023773193359e+00 5.243390083312988281e+00 5.962381839752197266e+00 3.347847938537597656e+00 3.732213973999023438e+00 5.988195896148681641e+00 5.328688144683837891e+00 9.073059082031250000e+00 5.982268810272216797e+00 5.007062911987304688e+00 9.672149658203125000e+00 7.334875106811523438e+00 4.566850185394287109e+00 6.413355827331542969e+00 3.408312082290649414e+00 3.273114919662475586e+00 7.061666011810302734e+00 2.963521003723144531e+00 3.878371953964233398e+00 7.435002803802490234e+00 6.843606948852539062e+00 3.884673118591308594e+00 6.966316223144531250e+00 8.283117294311523438e+00 5.918240070343017578e+00 3.116801977157592773e+00 5.451334953308105469e+00 5.355924129486083984e+00 2.495093107223510742e+00 6.711957931518554688e+00 5.071857929229736328e+00 7.687253952026367188e+00 1.018566703796386719e+01 6.106393814086914062e+00 7.112301826477050781e+00 9.241706848144531250e+00 1.637362957000732422e+00 5.184909820556640625e+00 4.169263839721679688e+00 4.276449978351593018e-01 4.908936023712158203e+00 3.301903009414672852e+00 9.971697807312011719e+00 7.227076053619384766e+00 3.709104061126708984e+00 1.064790058135986328e+01 8.579243659973144531e+00 3.629806041717529297e+00 8.046808242797851562e+00 5.126382827758789062e+00 2.213838100433349609e+00 7.995316982269287109e+00 4.290073871612548828e+00 3.474723100662231445e+00 1.872601032257080078e+00 7.864672183990478516e+00 7.930400848388671875e+00 8.376349806785583496e-01 8.186807632446289062e+00 8.987268447875976562e+00 8.314696311950683594e+00 1.011553382873535156e+01 2.212518930435180664e+00 8.687133789062500000e+00 8.667251586914062500e+00 2.448451995849609375e+00
2.283556699752807617e+00 9.144433975219726562e+00 5.087698459625244141e+00 1.252980709075927734e+00 2.405183792114257812e+00 7.768600463867187500e+00 1.595488786697387695e+00 6.918649673461914062e+00 6.542788743972778320e-01 2.961546421051025391e+00 3.768682241439819336e+00 1.878548502922058105e+00 2.327281981706619263e-01 5.882408142089843750e+00 6.532638549804687500e+00 9.024690628051757812e+00 6.117934226989746094e+00 9.496683627367019653e-02 7.256264686584472656e+00 8.492103576660156250e+00 5.773498535156250000e+00 5.087346076965332031e+00 9.464387893676757812e+00 7.413834929466247559e-01 6.328473091125488281e+00 7.365187644958496094e+00 3.745412111282348633e+00 7.763437271118164062e+00 8.353302001953125000e+00 9.277729988098144531e+00 8.279947280883789062e+00 3.840376377105712891e+00 5.797470569610595703e+00 8.879666328430175781e+00 2.024962186813354492e+00 1.666248798370361328e+00 9.160304069519042969e+00 2.857351303100585938e-01 6.868214130401611328e+00 4.960628032684326172e+00 4.133748531341552734e+00 1.749782115221023560e-01 2.802586078643798828e+00 8.693890571594238281e+00 2.435672521591186523e+00 9.127260208129882812e+00 3.550287723541259766e+00 8.876923561096191406e+00 1.453478693962097168e+00 1.399421811103820801e+00 2.360341310501098633e+00 6.535826683044433594e+00 1.147502660751342773e+00 7.610083103179931641e+00 2.768063545227050781e+00 8.814304471015930176e-01 9.543652534484863281e+00 8.551214933395385742e-01 2.077657222747802734e+00 5.011399745941162109e+00 6.387304306030273438e+00 1.918468594551086426e+00 2.466069608926773071e-01 2.730597019195556641e+00 4.452692508697509766e+00 5.848980903625488281e+00 4.602976322174072266e+00 9.254203796386718750e+00 6.574397563934326172e+00 3.659653186798095703e+00 6.209784030914306641e+00 3.158424139022827148e+00 3.369373798370361328e+00 6.927045822143554688e+00 7.474357604980468750e+00 5.290913105010986328e+00 3.272683143615722656e+00 6.157444477081298828e+00 5.226282119750976562e+00 6.956192970275878906e+00 9.583628654479980469e+00 8.470372557640075684e-01 5.595973014831542969e+00 3.820352315902709961e+00 9.782114982604980469e+00 8.164114952087402344e+00 3.658790826797485352e+00 8.507450103759765625e+00 4.430282592773437500e+00 2.678816556930541992e+00 1.337414264678955078e+00 8.583596229553222656e+00 8.274042129516601562e+00 8.052925109863281250e+00 9.222412109375000000e+00 1.993036746978759766e+00 1.778121948242187500e+00 9.830865859985351562e+00 5.538710117340087891e+00 3.100717782974243164e+00 9.099614143371582031e+00 5.583358287811279297e+00 5.678567290306091309e-01 2.989756822586059570e+00 8.077771186828613281e+00 1.761857986450195312e+00 2.946440458297729492e+00 7.182301998138427734e+00 2.098791360855102539e+00 6.131915092468261719e+00 7.943956851959228516e-01 1.773106694221496582e+00 7.479076862335205078e+00 1.429502964019775391e+00 3.755795478820800781e+00 3.821671009063720703e+00 1.347694873809814453e+00 2.998797178268432617e+00 4.525141716003417969e+00 2.469062805175781250e+00 9.423772096633911133e-01 5.243966102600097656e+00 6.558629989624023438e+00 5.119345784187316895e-01 6.512372493743896484e+00 5.871877670288085938e+00 9.850661277770996094e+00 6.486957550048828125e+00 3.908032774925231934e-01 8.557380676269531250e+00 6.856413841247558594e+00 -2.960261106491088867e-01 7.873961448669433594e+00 7.927187919616699219e+00 6.234433650970458984e+00 7.792927265167236328e+00 9.137844085693359375e+00 5.307425975799560547e+00 4.470960617065429688e+00 9.974392890930175781e+00 2.017399817705154419e-01 5.763983249664306641e+00 1.011597251892089844e+01 9.989783167839050293e-01 6.640642166137695312e+00 7.916195869445800781e+00 3.032149076461791992e+00 6.718132495880126953e+00 7.740158081054687500e+00 4.543730258941650391e+00 7.756914615631103516e+00 8.745551109313964844e+00 1.015278053283691406e+01 7.838754653930664062e+00 9.084677696228027344e+00 8.687456130981445312e+00 8.316855430603027344e+00 3.234806060791015625e+00 6.537956237792968750e+00 8.510466575622558594e+00 4.683154582977294922e+00 6.192083835601806641e+00 9.732144355773925781e+00 1.701786637306213379e+00 1.908723115921020508e+00 8.791874885559082031e+00 2.870647192001342773e+00 2.094870567321777344e+00 9.516725540161132812e+00 1.161308169364929199e+00 6.696188926696777344e+00 9.936503410339355469e+00 -2.248124182224273682e-01 7.172893524169921875e+00 4.751477241516113281e+00 4.185047149658203125e+00 -7.485612630844116211e-01 5.251156806945800781e+00 5.016638278961181641e+00 4.006210863590240479e-01 3.574049472808837891e+00 9.084629058837890625e+00 2.033562660217285156e+00 2.724062681198120117e+00 9.138575553894042969e+00 3.276606559753417969e+00 9.084089279174804688e+00 4.496871471405029297e+00 9.028900146484375000e+00 9.223860740661621094e+00 3.158675193786621094e+00 9.756852149963378906e+00 1.993379116058349609e+00 2.069795131683349609e+00 1.915702700614929199e+00 1.825712203979492188e+00 5.561537742614746094e-01 2.091259241104125977e+00 7.426061630249023438e+00 8.552259206771850586e-01 7.448272228240966797e+00 6.586047172546386719e+00 1.543775916099548340e+00 8.498208999633789062e+00 2.419104099273681641e+00 1.579732060432434082e+00 8.987313270568847656e+00 2.284281492233276367e+00 1.003607809543609619e-01 9.269174575805664062e+00 1.167695879936218262e+00 1.825131654739379883e+00 4.156949043273925781e+00 3.487767279148101807e-01 2.867914438247680664e+00 4.856523036956787109e+00 5.772662162780761719e+00 2.625682115554809570e+00 3.804682791233062744e-01 7.218225002288818359e+00 2.269177675247192383e+00 5.575541257858276367e-01 3.254549264907836914e+00 5.239508152008056641e+00 5.958898544311523438e+00 3.342952728271484375e+00 3.715986728668212891e+00 5.984648704528808594e+00 5.322165012359619141e+00 9.060652732849121094e+00 5.996516227722167969e+00 5.003036499023437500e+00 9.673696517944335938e+00 7.323794841766357422e+00 4.571795940399169922e+00 6.411207199096679688e+00 3.398866891860961914e+00 3.273976564407348633e+00 7.079959392547607422e+00 2.958380460739135742e+00 3.875013113021850586e+00 7.443265914916992188e+00 6.858643054962158203e+00 3.870156049728393555e+00 6.969593524932861328e+00 8.276334762573242188e+00 5.917890548706054688e+00 3.102464199066162109e+00 5.450179100036621094e+00 5.351564407348632812e+00 2.503217458724975586e+00 6.719468116760253906e+00 5.063414096832275391e+00 7.685693264007568359e+00 1.018204212188720703e+01 6.104633331298828125e+00 7.116941452026367188e+00 9.248867988586425781e+00 1.637983322143554688e+00 5.197415351867675781e+00 4.168658733367919922e+00 4.332623481750488281e-01 4.901723384857177734e+00 3.305717229843139648e+00 9.986173629760742188e+00 7.233949184417724609e+00 3.700310468673706055e+00 1.064684104919433594e+01 8.584445953369140625e+00 3.627740621566772461e+00 8.041197776794433594e+00 5.127187252044677734e+00 2.203791379928588867e+00 7.998820781707763672e+00 4.291086673736572266e+00 3.476615905761718750e+00 1.871271729469299316e+00 7.863287925720214844e+00 7.913207054138183594e+00 8.343470096588134766e-01 8.191484451293945312e+00 8.980063438415527344e+00 8.306323051452636719e+00 1.011910915374755859e+01 2.223038196563720703e+00 8.691858291625976562e+00 8.667806625366210938e+00 2.447695732116699219e+00
2.286561489105224609e+00 9.142274856567382812e+00 5.086491584777832031e+00 1.254442691802978516e+00 2.403793334960937500e+00 7.767319679260253906e+00 1.594538331031799316e+00 6.917350292205810547e+00 6.517935395240783691e-01 2.965319871902465820e+00 3.765318393707275391e+00 1.879735350608825684e+00 2.362473458051681519e-01 5.880833148956298828e+00 6.533131599426269531e+00 9.025738716125488281e+00 6.115879058837890625e+00 9.749826043844223022e-02 7.256047725677490234e+00 8.490567207336425781e+00 5.774957180023193359e+00 5.084235668182373047e+00 9.461593627929687500e+00 7.397344708442687988e-01 6.325837612152099609e+00 7.366634845733642578e+00 3.742906808853149414e+00 7.763005256652832031e+00 8.356937408447265625e+00 9.275936126708984375e+00 8.279042243957519531e+00 3.843501091003417969e+00 5.795438766479492188e+00 8.880703926086425781e+00 2.024024486541748047e+00 1.668142676353454590e+00 9.160079002380371094e+00 2.862800955772399902e-01 6.865433692932128906e+00 4.959211826324462891e+00 4.132853507995605469e+00 1.767331808805465698e-01 2.802078247070312500e+00 8.697254180908203125e+00 2.435278892517089844e+00 9.131256103515625000e+00 3.551192522048950195e+00 8.876990318298339844e+00 1.453108787536621094e+00 1.396332263946533203e+00 2.362526893615722656e+00 6.534859180450439453e+00 1.148228764533996582e+00 7.610345363616943359e+00 2.769659042358398438e+00 8.813351392745971680e-01 9.543283462524414062e+00 8.538276553153991699e-01 2.079263210296630859e+00 5.012449264526367188e+00 6.388634204864501953e+00 1.917663931846618652e+00 2.504599094390869141e-01 2.727894783020019531e+00 4.452548503875732422e+00 5.847704887390136719e+00 4.605536937713623047e+00 9.253974914550781250e+00 6.572740554809570312e+00 3.653842449188232422e+00 6.208844661712646484e+00 3.158419132232666016e+00 3.366763353347778320e+00 6.928299427032470703e+00 7.472537040710449219e+00 5.293726444244384766e+00 3.274885892868041992e+00 6.159786701202392578e+00 5.227149963378906250e+00 6.952466964721679688e+00 9.584216117858886719e+00 8.477120399475097656e-01 5.596250057220458984e+00 3.820029735565185547e+00 9.778429985046386719e+00 8.163818359375000000e+00 3.659670114517211914e+00 8.505004882812500000e+00 4.430143833160400391e+00 2.677630662918090820e+00 1.337143182754516602e+00 8.586575508117675781e+00 8.275504112243652344e+00 8.051148414611816406e+00 9.223428726196289062e+00 1.994526147842407227e+00 1.792967438697814941e+00 9.842885971069335938e+00 5.549400806427001953e+00 3.109083890914916992e+00 9.092343330383300781e+00 5.580922603607177734e+00 5.772718191146850586e-01 2.999623537063598633e+00 8.076434135437011719e+00 1.754650592803955078e+00 2.939930200576782227e+00 7.179189682006835938e+00 2.087607860565185547e+00 6.133666992187500000e+00 7.912480235099792480e-01 1.770433425903320312e+00 7.495968341827392578e+00 1.435912728309631348e+00 3.759832620620727539e+00 3.819611310958862305e+00 1.343459606170654297e+00 2.987618923187255859e+00 4.528658866882324219e+00 2.473226070404052734e+00 9.480173587799072266e-01 5.241893768310546875e+00 6.545163154602050781e+00 5.086917281150817871e-01 6.505626678466796875e+00 5.864269733428955078e+00 9.853176116943359375e+00 6.484646320343017578e+00 3.895578682422637939e-01 8.556828498840332031e+00 6.855730533599853516e+00 -2.995343506336212158e-01 7.863104343414306641e+00 7.911908149719238281e+00 6.235759735107421875e+00 7.794203281402587891e+00 9.136382102966308594e+00 5.298888206481933594e+00 4.472056388854980469e+00 9.979322433471679688e+00 1.818335503339767456e-01 5.770434856414794922e+00 1.013008213043212891e+01 9.987954497337341309e-01 6.629647731781005859e+00 7.916934013366699219e+00 3.025206327438354492e+00 6.725557804107666016e+00 7.737763881683349609e+00 4.551372528076171875e+00 7.762135505676269531e+00 8.747519493103027344e+00 1.015934181213378906e+01 7.848661422729492188e+00 9.080264091491699219e+00 8.692096710205078125e+00 8.320806503295898438e+00 3.249645471572875977e+00 6.549022197723388672e+00 8.513891220092773438e+00 4.688655853271484375e+00 6.194797992706298828e+00 9.728625297546386719e+00 1.696401834487915039e+00 1.895905017852783203e+00 8.783797264099121094e+00 2.869393825531005859e+00 2.096064805984497070e+00 9.530045509338378906e+00 1.163292169570922852e+00 6.690433979034423828e+00 9.954056739807128906e+00 -2.309886217117309570e-01 7.186235427856445312e+00 4.752061843872070312e+00 4.184265136718750000e+00 -7.419674992561340332e-01 5.255208015441894531e+00 5.018922805786132812e+00 3.980287909507751465e-01 3.576275110244750977e+00 9.092055320739746094e+00 2.037761688232421875e+00 2.727207422256469727e+00 9.131466865539550781e+00 3.285489320755004883e+00 9.082537651062011719e+00 4.505107879638671875e+00 9.027305603027343750e+00 9.232406616210937500e+00 3.149760961532592773e+00 9.766284942626953125e+00 1.988883256912231445e+00 2.081789016723632812e+00 1.902905225753784180e+00 1.828171730041503906e+00 5.452995896339416504e-01 2.100169420242309570e+00 7.425997734069824219e+00 8.589604496955871582e-01 7.455707550048828125e+00 6.595380306243896484e+00 1.551595091819763184e+00 8.516486167907714844e+00 2.420362472534179688e+00 1.585677385330200195e+00 8.984863281250000000e+00 2.289792060852050781e+00 9.816236048936843872e-02 9.247034072875976562e+00 1.176307082176208496e+00 1.830575346946716309e+00 4.168234348297119141e+00 3.450992107391357422e-01 2.864318132400512695e+00 4.852739334106445312e+00 5.772948741912841797e+00 2.617369174957275391e+00 3.858824968338012695e-01 7.218391418457031250e+00 2.281145095825195312e+00 5.527504086494445801e-01 3.250204086303710938e+00 5.238405227661132812e+00 5.956673145294189453e+00 3.340330123901367188e+00 3.698703050613403320e+00 5.980441093444824219e+00 5.319906711578369141e+00 9.047381401062011719e+00 6.008354663848876953e+00 5.001184940338134766e+00 9.677716255187988281e+00 7.315990924835205078e+00 4.579530715942382812e+00 6.409746170043945312e+00 3.390133142471313477e+00 3.274161577224731445e+00 7.099833965301513672e+00 2.952818155288696289e+00 3.873676538467407227e+00 7.454694747924804688e+00 6.871722698211669922e+00 3.858894824981689453e+00 6.972843170166015625e+00 8.274061203002929688e+00 5.918927669525146484e+00 3.088315486907958984e+00 5.448184490203857422e+00 5.348547935485839844e+00 2.508353710174560547e+00 6.728766441345214844e+00 5.054794788360595703e+00 7.687715053558349609e+00 1.018034744262695312e+01 6.106162548065185547e+00 7.123116970062255859e+00 9.254837036132812500e+00 1.642379641532897949e+00 5.208956241607666016e+00 4.170191764831542969e+00 4.363401532173156738e-01 4.893314838409423828e+00 3.307860851287841797e+00 1.000190544128417969e+01 7.235826969146728516e+00 3.691686868667602539e+00 1.064737606048583984e+01 8.590623855590820312e+00 3.626397371292114258e+00 8.035570144653320312e+00 5.129600524902343750e+00 2.192028522491455078e+00 8.001352310180664062e+00 4.291739940643310547e+00 3.481717348098754883e+00 1.872532486915588379e+00 7.859587669372558594e+00 7.894796848297119141e+00 8.296296000480651855e-01 8.194478034973144531e+00 8.975065231323242188e+00 8.298207283020019531e+00 1.012613391876220703e+01 2.233319044113159180e+00 8.699647903442382812e+00 8.665997505187988281e+00 2.449394464492797852e+00
2.289404630661010742e+00 9.140111923217773438e+00 5.085128307342529297e+00 1.256050825119018555e+00 2.402070999145507812e+00 7.766103267669677734e+00 1.593425631523132324e+00 6.916363239288330078e+00 6.493109464645385742e-01 2.968850612640380859e+00 3.761805295944213867e+00 1.880965113639831543e+00 2.395443320274353027e-01 5.879295349121093750e+00 6.533788204193115234e+00 9.026554107666015625e+00 6.113510131835937500e+00 1.000301837921142578e-01 7.255654335021972656e+00 8.489048004150390625e+00 5.776398658752441406e+00 5.081121444702148438e+00 9.458757400512695312e+00 7.382164001464843750e-01 6.323005676269531250e+00 7.367834568023681641e+00 3.740293025970458984e+00 7.762514591217041016e+00 8.360221862792968750e+00 9.274175643920898438e+00 8.278094291687011719e+00 3.846549272537231445e+00 5.793230056762695312e+00 8.881303787231445312e+00 2.023003339767456055e+00 1.669764161109924316e+00 9.159831047058105469e+00 2.867085337638854980e-01 6.862700939178466797e+00 4.957816600799560547e+00 4.131776332855224609e+00 1.786893755197525024e-01 2.801380395889282227e+00 8.700487136840820312e+00 2.434785127639770508e+00 9.135216712951660156e+00 3.551957607269287109e+00 8.876999855041503906e+00 1.452654004096984863e+00 1.393305301666259766e+00 2.364780426025390625e+00 6.533644676208496094e+00 1.149024248123168945e+00 7.610639095306396484e+00 2.771456956863403320e+00 8.812118768692016602e-01 9.543114662170410156e+00 8.525325655937194824e-01 2.080784797668457031e+00 5.013832092285156250e+00 6.390063285827636719e+00 1.916511654853820801e+00 2.542479932308197021e-01 2.724951505661010742e+00 4.452241897583007812e+00 5.846384048461914062e+00 4.607641696929931641e+00 9.253627777099609375e+00 6.570991516113281250e+00 3.647967815399169922e+00 6.207861423492431641e+00 3.158401012420654297e+00 3.363785505294799805e+00 6.929342269897460938e+00 7.470555305480957031e+00 5.296384811401367188e+00 3.277245998382568359e+00 6.162082195281982422e+00 5.227840423583984375e+00 6.948441982269287109e+00 9.584773063659667969e+00 8.482951521873474121e-01 5.596692562103271484e+00 3.819644212722778320e+00 9.774621009826660156e+00 8.163732528686523438e+00 3.660515308380126953e+00 8.502613067626953125e+00 4.429981708526611328e+00 2.676369428634643555e+00 1.336874365806579590e+00 8.589811325073242188e+00 8.276812553405761719e+00 8.049154281616210938e+00 9.224392890930175781e+00 1.995877861976623535e+00 1.807051539421081543e+00 9.855704307556152344e+00 5.559946537017822266e+00 3.120704174041748047e+00 9.085244178771972656e+00 5.580571651458740234e+00 5.823885798454284668e-01 3.012074232101440430e+00 8.078072547912597656e+00 1.750215053558349609e+00 2.935672760009765625e+00 7.172196388244628906e+00 2.079238414764404297e+00 6.130689144134521484e+00 7.890127301216125488e-01 1.768166184425354004e+00 7.512723922729492188e+00 1.441808223724365234e+00 3.766032457351684570e+00 3.817971944808959961e+00 1.337044000625610352e+00 2.977154016494750977e+00 4.534081935882568359e+00 2.478759765625000000e+00 9.562574625015258789e-01 5.237656116485595703e+00 6.531561374664306641e+00 5.058884620666503906e-01 6.500339508056640625e+00 5.854597091674804688e+00 9.860544204711914062e+00 6.483478546142578125e+00 3.898514509201049805e-01 8.554617881774902344e+00 6.857651233673095703e+00 -3.045529723167419434e-01 7.854040622711181641e+00 7.895713806152343750e+00 6.238324642181396484e+00 7.797436237335205078e+00 9.136062622070312500e+00 5.290655612945556641e+00 4.471405029296875000e+00 9.985237121582031250e+00 1.609024703502655029e-01 5.776755809783935547e+00 1.014384460449218750e+01 9.979410171508789062e-01 6.619756698608398438e+00 7.919685363769531250e+00 3.015862226486206055e+00 6.733787536621093750e+00 7.736073493957519531e+00 4.561148643493652344e+00 7.767624855041503906e+00 8.750794410705566406e+00 1.016987133026123047e+01 7.859096527099609375e+00 9.080042839050292969e+00 8.692414283752441406e+00 8.324349403381347656e+00 3.262882709503173828e+00 6.561743736267089844e+00 8.518997192382812500e+00 4.696794986724853516e+00 6.197728157043457031e+00 9.732481956481933594e+00 1.688621282577514648e+00 1.884418487548828125e+00 8.774990081787109375e+00 2.872598886489868164e+00 2.099500179290771484e+00 9.544963836669921875e+00 1.166923403739929199e+00 6.684088706970214844e+00 9.971014976501464844e+00 -2.372484058141708374e-01 7.200348377227783203e+00 4.751475811004638672e+00 4.183650016784667969e+00 -7.395308613777160645e-01 5.260026454925537109e+00 5.024894237518310547e+00 3.958426713943481445e-01 3.582595825195312500e+00 9.100672721862792969e+00 2.038879871368408203e+00 2.729674100875854492e+00 9.125490188598632812e+00 3.299556732177734375e+00 9.080965995788574219e+00 4.516891002655029297e+00 9.026922225952148438e+00 9.240873336791992188e+00 3.140277385711669922e+00 9.776155471801757812e+00 1.985438823699951172e+00 2.095098257064819336e+00 1.890156626701354980e+00 1.831394910812377930e+00 5.327836275100708008e-01 2.108052730560302734e+00 7.430351257324218750e+00 8.608786463737487793e-01 7.461144447326660156e+00 6.603766918182373047e+00 1.559672474861145020e+00 8.535913467407226562e+00 2.419889688491821289e+00 1.593842864036560059e+00 8.980395317077636719e+00 2.293832063674926758e+00 9.346529096364974976e-02 9.223316192626953125e+00 1.187197327613830566e+00 1.834074378013610840e+00 4.173573970794677734e+00 3.390408158302307129e-01 2.863879442214965820e+00 4.849345684051513672e+00 5.769130229949951172e+00 2.613963127136230469e+00 3.915711641311645508e-01 7.222277641296386719e+00 2.293358087539672852e+00 5.492736101150512695e-01 3.248028039932250977e+00 5.240159988403320312e+00 5.955736160278320312e+00 3.339174509048461914e+00 3.681626796722412109e+00 5.975399494171142578e+00 5.322948932647705078e+00 9.032882690429687500e+00 6.016949653625488281e+00 5.001773834228515625e+00 9.684567451477050781e+00 7.312016487121582031e+00 4.588949680328369141e+00 6.408716201782226562e+00 3.381849050521850586e+00 3.274352550506591797e+00 7.119673728942871094e+00 2.947166442871093750e+00 3.874584197998046875e+00 7.469563961029052734e+00 6.882463455200195312e+00 3.851138353347778320e+00 6.976005077362060547e+00 8.276954650878906250e+00 5.920941352844238281e+00 3.074440956115722656e+00 5.445809841156005859e+00 5.346889019012451172e+00 2.510642051696777344e+00 6.739768028259277344e+00 5.046073436737060547e+00 7.692908763885498047e+00 1.018026256561279297e+01 6.110947132110595703e+00 7.130835056304931641e+00 9.259620666503906250e+00 1.650664210319519043e+00 5.219476699829101562e+00 4.173860549926757812e+00 4.371174871921539307e-01 4.884057521820068359e+00 3.308610916137695312e+00 1.001875591278076172e+01 7.232798099517822266e+00 3.683203935623168945e+00 1.064875602722167969e+01 8.597591400146484375e+00 3.625819683074951172e+00 8.030366897583007812e+00 5.132879734039306641e+00 2.179169893264770508e+00 8.003010749816894531e+00 4.292192459106445312e+00 3.489713907241821289e+00 1.875557065010070801e+00 7.854563236236572266e+00 7.875817298889160156e+00 8.233613967895507812e-01 8.195566177368164062e+00 8.972481727600097656e+00 8.290202140808105469e+00 1.013589572906494141e+01 2.243180751800537109e+00 8.709904670715332031e+00 8.662381172180175781e+00 2.453159809112548828e+00