-1.577949896454811096e-02 -1.254007499665021896e-02 -3.096619062125682831e-02 2.675425447523593903e-02 -3.245587274432182312e-02 -1.929010730236768723e-03 -1.222205627709627151e-02 1.953099272213876247e-03 -1.811958104372024536e-02 -3.156724572181701660e-02 -2.405313402414321899e-02 9.961961768567562103e-04 -2.889902703464031219e-02 5.576157942414283752e-03 1.906578987836837769e-02 -2.178004384040832520e-02 -4.173183441162109375e-02 3.921830095350742340e-03 -2.372995950281620026e-02 -2.274237805977463722e-03 2.828744938597083092e-03 -1.079984940588474274e-02 -3.671807423233985901e-02 1.827394217252731323e-02 -2.913771197199821472e-02 -3.440573811531066895e-02 -2.939805202186107635e-02 -5.247988272458314896e-03 -2.735910192131996155e-02 -2.043173834681510925e-02 -7.714143488556146622e-03 -1.455526240170001984e-02 -3.075178340077400208e-02 -3.575654700398445129e-02 -1.367873325943946838e-02 -2.594115771353244781e-02 -3.743958100676536560e-02 -4.694769158959388733e-03 -4.524050280451774597e-03 -2.374192001298069954e-03 -2.583415247499942780e-02 1.092161424458026886e-02 -2.276851050555706024e-02 -1.584457419812679291e-02 -1.428284589201211929e-02 -5.970004945993423462e-03 -1.726211048662662506e-02 -2.612829208374023438e-02 -2.520243450999259949e-02 -2.052389318123459816e-03 2.105243131518363953e-02 -2.657793462276458740e-02 -7.051612250506877899e-03 -2.808910608291625977e-02 3.284311294555664062e-02 -2.777766901999711990e-03 3.325755521655082703e-02 2.762336283922195435e-03 -1.038740389049053192e-02 2.249613218009471893e-02 2.971633803099393845e-03 -3.309970349073410034e-02 -6.296099163591861725e-03 -3.753633797168731689e-02 2.073383890092372894e-03 -7.508931681513786316e-03 -3.268733620643615723e-02 -1.390565186738967896e-02 -1.633356511592864990e-02 -1.278352364897727966e-02 -3.594725579023361206e-02 -1.477602054364979267e-04 -3.396565839648246765e-02 -2.146517299115657806e-02 -1.426234375685453415e-02 -2.508585341274738312e-02 2.067343331873416901e-02 1.140538835898041725e-03 -1.984052173793315887e-02 -4.172385111451148987e-02 -8.148039691150188446e-03 -3.626109100878238678e-03 2.177736349403858185e-02 -3.240300109609961510e-03 -2.797099389135837555e-02 2.094225399196147919e-02 -3.767169313505291939e-03 1.325229648500680923e-02 -1.183260418474674225e-02 -2.779967850074172020e-03 -1.619288139045238495e-02 4.203775897622108459e-02 -4.287997726351022720e-03 -3.697437047958374023e-02 -8.482468314468860626e-03 -2.388524636626243591e-02 -1.341755315661430359e-02 1.788122020661830902e-02 7.310545537620782852e-03 2.874912880361080170e-02 2.372090239077806473e-03 1.977115124464035034e-02 -3.085841052234172821e-02 2.023940719664096832e-02 2.120582200586795807e-02 1.053662318736314774e-02 9.240639396011829376e-03 -1.835879310965538025e-02 9.873696602880954742e-03 -2.019672840833663940e-02 1.664134790189564228e-03 6.874357815831899643e-03 1.867332868278026581e-02 1.990883611142635345e-02 1.983651891350746155e-02 1.200931845232844353e-03 -2.080582268536090851e-02 4.145725630223751068e-03 2.282272838056087494e-02 1.892234385013580322e-02 2.047639898955821991e-02 -1.562446169555187225e-02 -1.549853826873004436e-03 4.519484937191009521e-03 9.306855499744415283e-03 -1.440300233662128448e-02 3.417351096868515015e-02 6.660691928118467331e-03 1.084940414875745773e-02 -1.559560280293226242e-02 2.426183596253395081e-02 -1.424896530807018280e-02 1.264223176985979080e-02 -9.579021483659744263e-03 1.125386636704206467e-02 1.860347390174865723e-02 1.704577170312404633e-02 -3.746459959074854851e-03 -2.478019334375858307e-02 1.821877434849739075e-02 -1.902391761541366577e-02 2.042892575263977051e-02 1.858431100845336914e-02 2.984633669257164001e-03 7.080187555402517319e-03 1.379986014217138290e-02 -1.876833848655223846e-02 1.276478637009859085e-02 1.023976504802703857e-02 3.186888620257377625e-02 2.204243093729019165e-03 1.375846844166517258e-02 3.965920954942703247e-02 1.516038901172578335e-03 1.329328399151563644e-02 -1.828731782734394073e-02 -2.724921097978949547e-03 -1.144814863801002502e-02 1.624828949570655823e-02 1.511312928050756454e-02 2.500951662659645081e-02 7.063745986670255661e-03 4.085799306631088257e-02 -1.364228222519159317e-02 4.152340814471244812e-03 -7.930874824523925781e-03 3.245308995246887207e-02 1.493780873715877533e-02 1.778526604175567627e-02 2.214547432959079742e-02 -6.353963632136583328e-03 2.491946704685688019e-02 -1.900402083992958069e-02 1.760816015303134918e-02 -5.862207151949405670e-03 1.428930321708321571e-03 -1.844605617225170135e-02 7.107600569725036621e-03 3.232860937714576721e-02 3.079184098169207573e-03 3.117854334414005280e-02 8.585757575929164886e-03 -2.259554900228977203e-02 -4.823699127882719040e-03 9.379966184496879578e-03 4.132112115621566772e-02 -9.198334882967174053e-04 3.891556337475776672e-02 8.562210015952587128e-03 1.660487730987370014e-03 -1.562326122075319290e-02 2.336455881595611572e-02 2.050963602960109711e-02 3.036489523947238922e-02 -1.063324231654405594e-02 7.943122647702693939e-03 -2.384220249950885773e-02 -9.775129146873950958e-03 2.772303298115730286e-02 -1.161123719066381454e-02 -1.263366173952817917e-02 -3.453778568655252457e-03 1.491068210452795029e-02 3.839640319347381592e-02 -1.710298098623752594e-02 2.239636145532131195e-02 -2.091832458972930908e-02 -1.552554685622453690e-02 -2.536121383309364319e-02 -1.551420241594314575e-02 1.053892169147729874e-02 -9.320520795881748199e-03 -2.875702455639839172e-02 -1.436488237231969833e-02 1.866837963461875916e-02 4.213992040604352951e-03 -2.065634727478027344e-02 2.836833149194717407e-02 4.935144097544252872e-04 2.720995619893074036e-02 1.663978444412350655e-03 1.025703269988298416e-02 1.121169514954090118e-02 1.889272592961788177e-02 9.625433944165706635e-03 2.450131252408027649e-02 -1.768391765654087067e-02 -4.091505426913499832e-03 2.260944619774818420e-02 -3.550372319296002388e-03 -9.311704896390438080e-03 1.369149237871170044e-02 1.515321154147386551e-02 1.822969317436218262e-02 2.941448614001274109e-02 7.408653851598501205e-03 7.428090553730726242e-03 -1.123351324349641800e-02 2.602322772145271301e-02 -6.225544027984142303e-03 1.233129855245351791e-02 2.127295918762683868e-02 -9.391499683260917664e-03 2.140709757804870605e-02 8.577880362281575799e-05 2.645969577133655548e-02 1.354272942990064621e-02 1.272231456823647022e-03 -9.169340133666992188e-03 1.059585902839899063e-02 -2.232240140438079834e-02 1.284445822238922119e-02 -1.198710524477064610e-03 2.942199073731899261e-02 1.580704376101493835e-02 2.329693175852298737e-02 1.194076426327228546e-02 -8.168812841176986694e-03 2.573657035827636719e-02 -5.639866460114717484e-03 1.555005181580781937e-02 -2.107693441212177277e-02 -1.051808707416057587e-02 -1.413036976009607315e-02 1.039038971066474915e-02 -3.562444448471069336e-02 1.301755779422819614e-03 1.762517914175987244e-02 8.520470000803470612e-03 5.581598263233900070e-03 -3.080364549532532692e-03 1.802470348775386810e-02 -1.802746765315532684e-02 -7.021518889814615250e-03 -3.505035303533077240e-03 2.566794306039810181e-02 2.653428167104721069e-02 -2.500550635159015656e-02 -1.376174855977296829e-02 -8.918387815356254578e-03 -1.061155553907155991e-02 1.363778393715620041e-02 2.645515371114015579e-03 3.076554462313652039e-02 -1.355732441879808903e-03 2.716478332877159119e-02 -2.106233872473239899e-02 2.129800803959369659e-02
-1.987883262336254120e-02 -6.986830849200487137e-03 -2.705978602170944214e-02 2.375541068613529205e-02 -4.041121155023574829e-02 3.470706986263394356e-03 -1.769460923969745636e-02 2.306048013269901276e-02 -8.920003660023212433e-03 -3.287867829203605652e-02 -2.296390570700168610e-02 3.281756537035107613e-03 -3.057626076042652130e-02 5.496866535395383835e-03 2.096838131546974182e-02 -2.718381397426128387e-02 -4.333465918898582458e-02 2.010372700169682503e-03 -2.482774667441844940e-02 6.678250065306201577e-05 1.998033985728397965e-04 -4.396964795887470245e-03 -2.139432355761528015e-02 1.863427832722663879e-02 -2.840613387525081635e-02 -3.473612293601036072e-02 -2.161204069852828979e-02 -6.407775450497865677e-03 -3.873501718044281006e-02 -8.677020668983459473e-03 -7.089447695761919022e-03 -1.271207816898822784e-02 -2.847079187631607056e-02 -4.887384548783302307e-02 -1.327343285083770752e-02 -3.263344243168830872e-02 -2.015668340027332306e-02 -1.162638049572706223e-02 1.231073052622377872e-03 -1.503167004557326436e-04 -2.658665738999843597e-02 1.970431394875049591e-02 -2.552055381238460541e-02 -1.861372403800487518e-02 -1.474937517195940018e-02 -5.346063990145921707e-03 -1.944226771593093872e-02 -1.752373576164245605e-02 -1.890197768807411194e-02 3.451538505032658577e-03 1.577599532902240753e-02 -3.154449164867401123e-02 1.716227154247462749e-03 -1.152938511222600937e-02 3.110705502331256866e-02 -2.937317593023180962e-03 3.118337132036685944e-02 1.384530100040137768e-03 -1.126734539866447449e-02 3.548007085919380188e-02 7.932763546705245972e-03 -4.169150814414024353e-02 -8.256732486188411713e-03 -3.562609851360321045e-02 -1.040397398173809052e-02 -6.930812261998653412e-03 -4.853405803442001343e-02 -1.531302090734243393e-02 -1.423895917832851410e-02 -1.174713950604200363e-02 -2.092528715729713440e-02 -1.188442460261285305e-03 -4.336351156234741211e-02 -2.559018693864345551e-02 -1.830304414033889771e-02 -2.314953692257404327e-02 2.226452343165874481e-02 -2.946603577584028244e-03 -2.283407747745513916e-02 -4.192929342389106750e-02 -6.474277004599571228e-03 -8.963094092905521393e-03 2.339304611086845398e-02 -5.764660425484180450e-03 -2.313790470361709595e-02 2.648827619850635529e-02 -4.204956814646720886e-03 1.116998586803674698e-02 -7.629685103893280029e-03 -7.282123900949954987e-03 -7.774684112519025803e-03 3.912960365414619446e-02 -1.254107523709535599e-02 -3.412983566522598267e-02 -7.785730063915252686e-03 -2.210570871829986572e-02 -1.021845545619726181e-02 1.286702696233987808e-02 3.531388007104396820e-03 2.954008989036083221e-02 1.653659390285611153e-03 1.943648420274257660e-02 -3.504477813839912415e-02 2.229577302932739258e-02 2.369173429906368256e-02 1.780917495489120483e-02 1.485536433756351471e-02 -2.627377957105636597e-02 1.765659265220165253e-02 -3.122668340802192688e-02 4.815929569303989410e-03 4.949982278048992157e-03 8.768776431679725647e-03 7.612689863890409470e-03 2.023918554186820984e-02 2.328107133507728577e-03 -2.026657387614250183e-02 4.912095610052347183e-03 2.045357972383499146e-02 1.607746072113513947e-02 2.224856428802013397e-02 -1.791029796004295349e-02 -1.231692614965140820e-03 4.433543421328067780e-03 1.161361392587423325e-02 -1.658407412469387054e-02 3.911112248897552490e-02 8.911517448723316193e-03 1.254932954907417297e-02 -1.563019864261150360e-02 2.410489134490489960e-02 -1.412433572113513947e-02 1.453469227999448776e-02 -9.320106357336044312e-03 1.136756408959627151e-02 1.790905743837356567e-02 1.398585643619298935e-02 -1.226254971697926521e-03 -2.030736580491065979e-02 1.380327343940734863e-02 -1.458987127989530563e-02 9.369208477437496185e-03 7.573506794869899750e-03 -1.358669251203536987e-03 8.586423471570014954e-03 1.613540016114711761e-02 -2.055705897510051727e-02 1.022474840283393860e-02 8.464103564620018005e-03 2.592838741838932037e-02 2.123475307598710060e-03 1.298094261437654495e-02 3.806805238127708435e-02 2.925561740994453430e-03 2.535529434680938721e-02 -2.822625264525413513e-02 -2.961099613457918167e-03 -1.329936645925045013e-02 1.599044166505336761e-02 1.473539602011442184e-02 2.474945038557052612e-02 5.038786213845014572e-03 5.350827053189277649e-02 -1.784827001392841339e-02 8.448746055364608765e-03 -7.260991260409355164e-03 3.666089475154876709e-02 1.775288581848144531e-02 1.588432677090167999e-02 1.911850459873676300e-02 -5.939521826803684235e-03 9.478165768086910248e-03 -9.408391080796718597e-03 1.182153262197971344e-02 -8.041303604841232300e-03 1.412690617144107819e-03 -2.795383892953395844e-02 7.345367223024368286e-03 3.300517052412033081e-02 3.759328043088316917e-03 3.446434065699577332e-02 1.014519482851028442e-02 -2.518744766712188721e-02 -5.523674655705690384e-03 1.048259809613227844e-02 4.420535638928413391e-02 -6.482407916337251663e-04 3.594422712922096252e-02 9.474678896367549896e-03 6.130840047262609005e-04 -1.043711509555578232e-02 1.393057685345411301e-02 1.486997492611408234e-02 2.120692841708660126e-02 -5.723325535655021667e-03 7.568073924630880356e-03 -1.985191740095615387e-02 -9.377609938383102417e-03 3.420350328087806702e-02 -1.403713226318359375e-02 -1.510564330965280533e-02 -5.571216344833374023e-03 8.616557344794273376e-03 2.399575337767601013e-02 -1.620822027325630188e-02 2.172246947884559631e-02 -1.970237307250499725e-02 -1.474045030772686005e-02 -2.455877140164375305e-02 -1.476108562201261520e-02 1.545876264572143555e-02 -1.353048533201217651e-02 -4.113325476646423340e-02 -1.786308363080024719e-02 2.377954497933387756e-02 3.528213594108819962e-03 -2.902269735932350159e-02 3.620243072509765625e-02 1.706082257442176342e-03 3.058465383946895599e-02 2.468394581228494644e-03 1.114994101226329803e-02 1.546013448387384415e-02 2.258211374282836914e-02 1.022163219749927521e-02 1.846631057560443878e-02 -8.586594834923744202e-03 -5.362702999264001846e-03 3.465685620903968811e-02 -7.038373034447431564e-03 -1.957425288856029510e-02 1.767853461205959320e-02 2.009362727403640747e-02 2.661937102675437927e-02 2.266334183514118195e-02 5.590585526078939438e-03 5.781061016023159027e-03 -5.497165489941835403e-03 1.284796278923749924e-02 -3.429602598771452904e-03 1.643225178122520447e-02 2.572703547775745392e-02 -1.589842513203620911e-02 2.645778097212314606e-02 -2.244365023216232657e-04 3.663228452205657959e-02 1.126680057495832443e-02 1.538160373456776142e-03 -6.814736407250165939e-03 1.091253012418746948e-02 -2.428300492465496063e-02 1.453150436282157898e-02 -1.424003974534571171e-03 2.911514416337013245e-02 1.568330079317092896e-02 2.673297561705112457e-02 1.248164847493171692e-02 -9.682743810117244720e-03 3.068420104682445526e-02 -7.838591001927852631e-03 1.737831719219684601e-02 -2.063685283064842224e-02 -9.719274006783962250e-03 -1.357701234519481659e-02 1.021232735365629196e-02 -4.059334471821784973e-02 1.381308771669864655e-03 1.296423468738794327e-02 7.924082688987255096e-03 5.869782995432615280e-03 -1.446287933504208922e-04 1.307488046586513519e-02 -1.394566800445318222e-02 -7.905433885753154755e-03 -2.920447383075952530e-03 2.607322297990322113e-02 2.104575373232364655e-02 -1.882034540176391602e-02 -9.885556995868682861e-03 -1.161528937518596649e-02 -1.367855817079544067e-02 1.792510226368904114e-02 2.086806809529662132e-03 2.802568115293979645e-02 -1.937011606059968472e-03 2.491208352148532867e-02 -1.920664496719837189e-02 1.994983665645122528e-02
-2.081237174570560455e-02 -4.497618938330560923e-04 -2.016878128051757812e-02 1.885852217674255371e-02 -4.281638935208320618e-02 8.349159732460975647e-03 -2.092304825782775879e-02 4.027796536684036255e-02 3.517465956974774599e-04 -3.131015226244926453e-02 -1.926268450915813446e-02 5.531174596399068832e-03 -2.865503728389739990e-02 4.837677348405122757e-03 2.108219452202320099e-02 -3.009433671832084656e-02 -4.038554430007934570e-02 6.484909681603312492e-05 -2.278266288340091705e-02 2.369651570916175842e-03 -2.244656207039952278e-03 -5.379065987654030323e-04 -5.411802325397729874e-03 1.688636280596256256e-02 -2.541024610400199890e-02 -3.200406581163406372e-02 -1.398429553955793381e-02 -7.639637682586908340e-03 -4.522649198770523071e-02 4.414146300405263901e-03 -5.487701389938592911e-03 -9.888216853141784668e-03 -2.274183370172977448e-02 -5.641017854213714600e-02 -1.077988464385271072e-02 -3.512823209166526794e-02 -3.040470415726304054e-03 -1.503492146730422974e-02 6.119268015027046204e-03 2.648834139108657837e-03 -2.357155829668045044e-02 2.595535665750503540e-02 -2.452496066689491272e-02 -1.689817756414413452e-02 -1.290117576718330383e-02 -4.569339565932750702e-03 -1.804103702306747437e-02 -7.310051005333662033e-03 -1.095396466553211212e-02 8.048497140407562256e-03 8.763208985328674316e-03 -3.178742900490760803e-02 8.958447724580764771e-03 4.091253969818353653e-03 2.608232945203781128e-02 -3.611513646319508553e-03 2.573854848742485046e-02 -1.692314981482923031e-04 -1.087885629385709763e-02 4.294359311461448669e-02 1.275871414691209793e-02 -4.485565051436424255e-02 -8.367029950022697449e-03 -3.109576366841793060e-02 -2.096031792461872101e-02 -5.813756026327610016e-03 -5.886171758174896240e-02 -1.532072387635707855e-02 -1.182248443365097046e-02 -8.225646801292896271e-03 -5.639287177473306656e-03 -1.688941149041056633e-03 -4.742031916975975037e-02 -2.720857039093971252e-02 -2.082385867834091187e-02 -2.003222890198230743e-02 2.031140215694904327e-02 -5.980701185762882233e-03 -2.291355840861797333e-02 -3.852096199989318848e-02 -3.897002898156642914e-03 -1.182511635124683380e-02 2.130579948425292969e-02 -8.143095299601554871e-03 -1.592911407351493835e-02 2.713851630687713623e-02 -4.427160136401653290e-03 6.827925331890583038e-03 -3.071905812248587608e-03 -9.727631695568561554e-03 2.821543021127581596e-04 3.313739597797393799e-02 -1.965754479169845581e-02 -2.803152427077293396e-02 -6.731657776981592178e-03 -1.776803098618984222e-02 -6.187248509377241135e-03 6.486568134278059006e-03 -1.178353093564510345e-03 2.644408121705055237e-02 1.397274783812463284e-03 1.694284752011299133e-02 -3.492878749966621399e-02 2.099884673953056335e-02 2.417661994695663452e-02 2.252369001507759094e-02 1.830882392823696136e-02 -3.153781220316886902e-02 2.286956086754798889e-02 -3.842933475971221924e-02 7.414532825350761414e-03 3.298250259831547737e-03 -1.106211100704967976e-03 -4.178757313638925552e-03 1.757566630840301514e-02 3.414255799725651741e-03 -1.771848648786544800e-02 5.797191057354211807e-03 1.549043692648410797e-02 1.113676652312278748e-02 2.112752757966518402e-02 -1.759820803999900818e-02 -1.099681365303695202e-03 3.572191111743450165e-03 1.185561250895261765e-02 -1.677648536860942841e-02 3.944182768464088440e-02 9.296047501266002655e-03 1.250595878809690475e-02 -1.348597556352615356e-02 2.115704864263534546e-02 -1.227355934679508209e-02 1.457431912422180176e-02 -7.431281730532646179e-03 1.006545126438140869e-02 1.590360701084136963e-02 9.287537075579166412e-03 2.482696203514933586e-03 -1.419579517096281052e-02 8.007694967091083527e-03 -8.326284587383270264e-03 -1.058673602528870106e-03 -2.812899881973862648e-03 -5.457025021314620972e-03 8.961967192590236664e-03 1.635779254138469696e-02 -1.951315253973007202e-02 6.541650742292404175e-03 5.719071719795465469e-03 1.734455674886703491e-02 2.183427102863788605e-03 1.061083748936653137e-02 3.225865215063095093e-02 4.290953744202852249e-03 3.407022729516029358e-02 -3.511914983391761780e-02 -3.323412733152508736e-03 -1.301907375454902649e-02 1.345531456172466278e-02 1.365661993622779846e-02 2.143597975373268127e-02 1.754571334458887577e-03 5.994396656751632690e-02 -1.946761459112167358e-02 1.082112453877925873e-02 -5.919053219258785248e-03 3.622875362634658813e-02 1.821164786815643311e-02 1.297944877296686172e-02 1.338584721088409424e-02 -4.797433502972126007e-03 -4.835678264498710632e-03 -6.791215855628252029e-04 6.263331510126590729e-03 -9.512732736766338348e-03 1.352270948700606823e-03 -3.378134220838546753e-02 6.237462628632783890e-03 2.995803579688072205e-02 3.300686366856098175e-03 3.327586874365806580e-02 9.674544446170330048e-03 -2.503689564764499664e-02 -5.511524621397256851e-03 9.200009517371654510e-03 4.213272780179977417e-02 -1.693622034508734941e-04 2.882159128785133362e-02 9.838476777076721191e-03 -6.388187757693231106e-04 -4.624925088137388229e-03 3.556186100468039513e-03 8.545108139514923096e-03 1.068880409002304077e-02 3.982399939559400082e-04 6.206145044416189194e-03 -1.350425928831100464e-02 -8.345340378582477570e-03 3.589372709393501282e-02 -1.475938875228166580e-02 -1.624047756195068359e-02 -7.687004748731851578e-03 2.097484888508915901e-03 9.349367581307888031e-03 -1.406910642981529236e-02 1.804247125983238220e-02 -1.639869809150695801e-02 -1.195040065795183182e-02 -2.030434086918830872e-02 -1.280834432691335678e-02 1.852017454802989960e-02 -1.580194383859634399e-02 -4.831614345312118530e-02 -1.934736967086791992e-02 2.565857395529747009e-02 3.168131690472364426e-03 -3.335628658533096313e-02 3.987285867333412170e-02 2.230206737294793129e-03 3.023266047239303589e-02 1.997268991544842720e-03 1.078309398144483566e-02 1.762668974697589874e-02 2.322485297918319702e-02 1.047198567539453506e-02 1.192317064851522446e-02 1.687653711996972561e-03 -6.776857189834117889e-03 4.307096451520919800e-02 -9.962404146790504456e-03 -2.635416574776172638e-02 1.982643641531467438e-02 2.300612442195415497e-02 3.112020902335643768e-02 1.368460059165954590e-02 3.499383805319666862e-03 3.652833169326186180e-03 4.694590097642503679e-05 -2.849292941391468048e-04 -7.241455023176968098e-04 1.823760569095611572e-02 2.795883640646934509e-02 -1.900804974138736725e-02 2.847910486161708832e-02 -7.114344043657183647e-04 4.199032112956047058e-02 7.933433167636394501e-03 2.227733610197901726e-03 -3.089951584115624428e-03 1.103479694575071335e-02 -2.314275130629539490e-02 1.384074147790670395e-02 -8.299481123685836792e-04 2.577071264386177063e-02 1.308566238731145859e-02 2.645345032215118408e-02 1.253536716103553772e-02 -9.635340422391891479e-03 3.159650787711143494e-02 -8.292570710182189941e-03 1.735357008874416351e-02 -1.869377307593822479e-02 -6.895350292325019836e-03 -1.132234930992126465e-02 9.085838682949542999e-03 -3.987037390470504761e-02 1.144703943282365799e-03 6.855302024632692337e-03 6.420478224754333496e-03 6.218136288225650787e-03 3.442327259108424187e-03 7.035141345113515854e-03 -8.906464092433452606e-03 -7.088299840688705444e-03 -1.631032791920006275e-03 2.352655306458473206e-02 1.433428842574357986e-02 -1.076291315257549286e-02 -4.624445457011461258e-03 -1.260241121053695679e-02 -1.547369174659252167e-02 1.962817646563053131e-02 9.081563912332057953e-04 2.225156687200069427e-02 -3.405833151191473007e-03 2.005520090460777283e-02 -1.468261051923036575e-02 1.679493859410285950e-02
-1.854733005166053772e-02 6.130945868790149689e-03 -1.142047811299562454e-02 1.342908199876546860e-02 -3.862849995493888855e-02 1.149379834532737732e-02 -2.104493230581283569e-02 5.062972009181976318e-02 8.596626110374927521e-03 -2.758091315627098083e-02 -1.387493219226598740e-02 7.292702794075012207e-03 -2.336773276329040527e-02 3.567739855498075485e-03 1.920276135206222534e-02 -2.993392385542392731e-02 -3.342707827687263489e-02 -1.558012096211314201e-03 -1.822107471525669098e-02 3.875665599480271339e-03 -4.167867358773946762e-03 1.010345760732889175e-03 9.508189745247364044e-03 1.360079459846019745e-02 -2.083240821957588196e-02 -2.698782272636890411e-02 -8.028551936149597168e-03 -8.431648835539817810e-03 -4.518602043390274048e-02 1.576934568583965302e-02 -3.170438809320330620e-03 -6.384887266904115677e-03 -1.427119597792625427e-02 -5.635166168212890625e-02 -7.128241937607526779e-03 -3.315592929720878601e-02 1.228326745331287384e-02 -1.514344010502099991e-02 9.940273128449916840e-03 5.373669322580099106e-03 -1.727189496159553528e-02 2.822832018136978149e-02 -2.005281113088130951e-02 -1.115294359624385834e-02 -8.799347095191478729e-03 -3.879843745380640030e-03 -1.366672106087207794e-02 2.573747886344790459e-03 -2.898616017773747444e-03 1.115724071860313416e-02 1.378279877826571465e-03 -2.706047147512435913e-02 1.370036043226718903e-02 1.696695759892463684e-02 1.876322552561759949e-02 -4.665960557758808136e-03 1.752929948270320892e-02 -1.221053418703377247e-03 -9.353131055831909180e-03 4.282502457499504089e-02 1.612892560660839081e-02 -4.147747531533241272e-02 -6.453944835811853409e-03 -2.466704882681369781e-02 -2.766324952244758606e-02 -4.446655511856079102e-03 -6.096914038062095642e-02 -1.429263502359390259e-02 -9.564487263560295105e-03 -2.794452011585235596e-03 8.229516446590423584e-03 -1.825515879318118095e-03 -4.510628432035446167e-02 -2.563676238059997559e-02 -2.082612551748752594e-02 -1.633866690099239349e-02 1.528462208807468414e-02 -7.519278209656476974e-03 -2.012792788445949554e-02 -3.200419619679450989e-02 -7.423600181937217712e-04 -1.157777477055788040e-02 1.602769270539283752e-02 -9.763482958078384399e-03 -7.060052827000617981e-03 2.285034395754337311e-02 -4.603341687470674515e-03 1.049412530846893787e-03 1.154493424110114574e-03 -9.881898760795593262e-03 6.448497995734214783e-03 2.523421309888362885e-02 -2.439886517822742462e-02 -1.984285749495029449e-02 -5.435675382614135742e-03 -1.183098275214433670e-02 -2.104966435581445694e-03 -3.013362875208258629e-04 -6.173215806484222412e-03 2.022906392812728882e-02 1.603355747647583485e-03 1.276787277311086655e-02 -3.067813254892826080e-02 1.633810251951217651e-02 2.264151163399219513e-02 2.356762625277042389e-02 1.853223890066146851e-02 -3.289914876222610474e-02 2.441142313182353973e-02 -3.996316716074943542e-02 9.096868336200714111e-03 2.176741370931267738e-03 -9.827076457440853119e-03 -1.397481560707092285e-02 1.246361806988716125e-02 4.344866611063480377e-03 -1.356333121657371521e-02 6.884027738124132156e-03 8.986320346593856812e-03 5.019845440983772278e-03 1.730990782380104065e-02 -1.473803259432315826e-02 -1.022586948238313198e-03 2.005379647016525269e-03 1.012446079403162003e-02 -1.490661408752202988e-02 3.504311293363571167e-02 7.747758179903030396e-03 1.072729565203189850e-02 -9.628914296627044678e-03 1.603990048170089722e-02 -9.022752754390239716e-03 1.292447652667760849e-02 -3.975545056164264679e-03 7.538796868175268173e-03 1.307619642466306686e-02 3.781417384743690491e-03 6.849393248558044434e-03 -7.756127975881099701e-03 1.701531582511961460e-03 -1.211954746395349503e-03 -9.748877026140689850e-03 -1.163780502974987030e-02 -8.860588073730468750e-03 8.316818624734878540e-03 1.456454209983348846e-02 -1.566757448017597198e-02 2.256547333672642708e-03 2.736244816333055496e-03 7.644716184586286545e-03 2.284821821376681328e-03 7.283037062734365463e-03 2.341311983764171600e-02 5.177471321076154709e-03 3.713247552514076233e-02 -3.709207847714424133e-02 -3.788301022723317146e-03 -1.103440392762422562e-02 8.965362794697284698e-03 1.206693425774574280e-02 1.577954925596714020e-02 -2.392945345491170883e-03 5.805784463882446289e-02 -1.763279549777507782e-02 1.101138629019260406e-02 -3.841547993943095207e-03 3.117951378226280212e-02 1.632164977490901947e-02 9.336010552942752838e-03 6.084688007831573486e-03 -3.274578601121902466e-03 -1.665811613202095032e-02 6.308697164058685303e-03 1.443246263079345226e-03 -9.826168417930603027e-03 1.141702639870345592e-03 -3.468145802617073059e-02 3.989010117948055267e-03 2.379670366644859314e-02 1.876707654446363449e-03 2.796167507767677307e-02 7.237215992063283920e-03 -2.247792482376098633e-02 -4.859651904553174973e-03 5.885558668524026871e-03 3.547324612736701965e-02 5.848802975378930569e-04 1.903048530220985413e-02 9.887522086501121521e-03 -1.952370395883917809e-03 9.266359847970306873e-04 -6.102667190134525299e-03 2.742603654041886330e-03 4.290874057915061712e-04 6.634703371673822403e-03 4.248240496963262558e-03 -5.883835721760988235e-03 -6.995797157287597656e-03 3.239903226494789124e-02 -1.367082633078098297e-02 -1.616665720939636230e-02 -9.644857607781887054e-03 -3.755726851522922516e-03 -3.605728037655353546e-03 -1.103994902223348618e-02 1.214270479977130890e-02 -1.156550273299217224e-02 -7.777999155223369598e-03 -1.351622212678194046e-02 -9.692497551441192627e-03 1.865931600332260132e-02 -1.557464525103569031e-02 -4.833106696605682373e-02 -1.845509931445121765e-02 2.387723326683044434e-02 3.231313778087496758e-03 -3.248336166143417358e-02 3.832895681262016296e-02 1.746773952618241310e-03 2.624759823083877563e-02 9.865519677987322211e-05 9.311971254646778107e-03 1.740363426506519318e-02 2.047518268227577209e-02 1.033982820808887482e-02 5.871308036148548126e-03 1.156541053205728531e-02 -8.024737238883972168e-03 4.561818391084671021e-02 -1.126414258033037186e-02 -2.798133157193660736e-02 1.965516805648803711e-02 2.318720705807209015e-02 3.051361814141273499e-02 3.820851445198059082e-03 1.368493423797190189e-03 1.541070756502449512e-03 4.594471305608749390e-03 -1.189502514898777008e-02 1.610149745829403400e-03 1.725946739315986633e-02 2.729194983839988708e-02 -1.827265508472919464e-02 2.695902436971664429e-02 -1.402349444106221199e-03 4.103929176926612854e-02 4.077324178069829941e-03 3.234447678551077843e-03 1.365325064398348331e-03 1.107758749276399612e-02 -1.924866437911987305e-02 1.094162277877330780e-02 5.460542161017656326e-04 2.005500905215740204e-02 8.540574461221694946e-03 2.250873297452926636e-02 1.195822935551404953e-02 -8.195641450583934784e-03 2.819889783859252930e-02 -7.014516275376081467e-03 1.534552220255136490e-02 -1.561801135540008545e-02 -2.542136702686548233e-03 -7.842847146093845367e-03 6.806070450693368912e-03 -3.382925316691398621e-02 7.789856172166764736e-04 2.151176013285294175e-04 4.397556651383638382e-03 6.595602724701166153e-03 7.120342925190925598e-03 8.253708947449922562e-04 -3.552008885890245438e-03 -4.837019369006156921e-03 1.494960015406832099e-04 1.843671500682830811e-02 7.542565930634737015e-03 -2.370195230469107628e-03 1.191415009088814259e-03 -1.149779278784990311e-02 -1.565249077975749969e-02 1.834648288786411285e-02 -5.865243147127330303e-04 1.455201394855976105e-02 -5.530059337615966797e-03 1.345941238105297089e-02 -8.483528159558773041e-03 1.257181633263826370e-02