      96
 i =        0, time =        0.000, E =      -550.5239948772
  O         0.0002943684       -0.0001879955       -0.0000802020
  O         0.0001073333       -0.0000869709       -0.0001188674
  O        -0.0000700168       -0.0001358247       -0.0002144651
  O         0.0003794638       -0.0002827237        0.0001058271
  O         0.0003536343       -0.0001498809        0.0000234620
  O         0.0001228449       -0.0001424131        0.0002286095
  O         0.0000061835       -0.0001397411        0.0001322320
  O        -0.0002773906       -0.0002272598       -0.0001704370
  O        -0.0002104569        0.0001691327       -0.0002033064
  O        -0.0000330576        0.0003694669       -0.0001506448
  O        -0.0000750057        0.0002998407       -0.0001546968
  O         0.0001421524       -0.0000714681        0.0002054567
  O         0.0000070164        0.0000597269       -0.0002534449
  O        -0.0001285128       -0.0000537990        0.0001426046
  O        -0.0000202646        0.0003263047       -0.0000204834
  O         0.0003712068        0.0001026255        0.0000277645
  O        -0.0000114850       -0.0002841591        0.0001811658
  O        -0.0000566961        0.0000676556        0.0000420736
  O         0.0001121899       -0.0000056466       -0.0000676013
  O        -0.0001202399        0.0001584832        0.0000628462
  O         0.0001149069       -0.0000322805        0.0003603222
  O        -0.0002084878       -0.0000065280       -0.0001090620
  O         0.0002801027       -0.0000051372       -0.0001356065
  O        -0.0005183715       -0.0000583010        0.0000004376
  O        -0.0001958709        0.0001403459       -0.0001484000
  O         0.0002825079        0.0001782680        0.0002157791
  O         0.0001025725       -0.0002961409        0.0000611614
  O         0.0000693267        0.0000010529       -0.0000242452
  O        -0.0003105557       -0.0000532945        0.0000847026
  O        -0.0002361394       -0.0000030650       -0.0001022680
  O        -0.0000135308        0.0002297435        0.0001440020
  O        -0.0001251377        0.0001014578        0.0001602938
  H         0.0015476161        0.0008535554        0.0008964939
  H         0.0002707777       -0.0006966352       -0.0005525642
  H         0.0014285759        0.0005373304       -0.0005080606
  H        -0.0009185292       -0.0008142871        0.0001143362
  H        -0.0012766021        0.0006250389       -0.0003513034
  H        -0.0003387416        0.0013405644        0.0003883511
  H         0.0000297969       -0.0002212339       -0.0000421445
  H        -0.0011005066       -0.0000369740        0.0000932897
  H         0.0001501417        0.0000999535       -0.0012085512
  H        -0.0003717637       -0.0007997456       -0.0004279477
  H        -0.0004023718       -0.0003490479       -0.0003160669
  H         0.0002131750       -0.0004701033       -0.0000816726
  H        -0.0012271911       -0.0012381558       -0.0000699377
  H        -0.0001894704       -0.0003869347       -0.0007456744
  H         0.0004680241        0.0001928925       -0.0015487079
  H         0.0003694705        0.0011001406       -0.0000182225
  H        -0.0011415253       -0.0001916600       -0.0002978633
  H         0.0004919567       -0.0003717039        0.0002276768
  H         0.0004410076       -0.0000434515       -0.0000515899
  H         0.0008642465       -0.0007635355        0.0008446005
  H         0.0004098612        0.0015706464        0.0007403637
  H         0.0000623110        0.0000838057        0.0001516964
  H        -0.0011535671       -0.0002147456       -0.0012902503
  H        -0.0006122234       -0.0007095722       -0.0001745740
  H         0.0009390071       -0.0001582839       -0.0004235509
  H         0.0013579181       -0.0003518868        0.0009877038
  H         0.0001768905       -0.0000954125        0.0010210520
  H         0.0002477142       -0.0003442872       -0.0002966031
  H        -0.0003596408        0.0005165025        0.0007943486
  H         0.0003767818       -0.0008205688        0.0000822960
  H        -0.0001293572        0.0001297052       -0.0003004844
  H         0.0007649793       -0.0006096457        0.0005742253
  H        -0.0006936810        0.0006870967       -0.0010457582
  H         0.0000950264       -0.0006348427        0.0009750626
  H        -0.0005465470        0.0005646460        0.0009207520
  H         0.0009353140        0.0005340277        0.0011849576
  H         0.0003936024        0.0001731551        0.0001153635
  H         0.0007569439        0.0002179696       -0.0017708038
  H         0.0005540452        0.0007023091        0.0016562327
  H        -0.0000544333       -0.0007013065       -0.0004093043
  H         0.0004689010       -0.0013268279        0.0004730012
  H        -0.0004819686        0.0010569355       -0.0006222967
  H        -0.0006342378       -0.0004611634       -0.0003725939
  H        -0.0005853463       -0.0013840253       -0.0003013021
  H        -0.0007235184       -0.0011141848        0.0013548590
  H        -0.0004451385        0.0000561864       -0.0011154784
  H         0.0002866934       -0.0002381238       -0.0009052613
  H         0.0001419537        0.0015260175       -0.0004349216
  H        -0.0003764309        0.0006357349        0.0014274399
  H        -0.0014475742        0.0002991355       -0.0007688458
  H        -0.0001081165       -0.0013179359       -0.0000540909
  H        -0.0004581581        0.0008683147        0.0006143217
  H        -0.0007652062       -0.0003081939       -0.0004203136
  H        -0.0002920060        0.0003569699        0.0007005995
  H        -0.0000880603        0.0011749756       -0.0001428109
  H         0.0006321021       -0.0006002112        0.0004281903
  H         0.0012649073        0.0008287338       -0.0008112394
  H        -0.0001960429        0.0004276673       -0.0002202194
  H        -0.0004955272       -0.0000278605       -0.0008170606
  H         0.0003598305        0.0001122980        0.0000286646
  H        -0.0002707767        0.0000141256       -0.0014944638
  H        -0.0002504248        0.0004872130       -0.0007353523
  H        -0.0007803428        0.0001538064        0.0009692948
  H         0.0002790563        0.0001691569       -0.0001889478
      96
 i =        1, time =        0.500, E =      -550.5213438655
  O         0.0002817320       -0.0001949154       -0.0001007648
  O         0.0001252326       -0.0001127931       -0.0001183210
  O        -0.0000806185       -0.0001269606       -0.0002240472
  O         0.0003566258       -0.0002993853        0.0001073431
  O         0.0003325579       -0.0001459569        0.0000376490
  O         0.0001054934       -0.0001725584        0.0002307118
  O        -0.0000110241       -0.0001405233        0.0001333053
  O        -0.0002827760       -0.0002478533       -0.0001573578
  O        -0.0002308489        0.0001446306       -0.0002213830
  O        -0.0000371881        0.0003460449       -0.0001609601
  O        -0.0000802517        0.0002901779       -0.0001756838
  O         0.0001121616       -0.0000810192        0.0001846994
  O        -0.0000133942        0.0000539431       -0.0002546119
  O        -0.0001294074       -0.0000723755        0.0001534576
  O        -0.0000373770        0.0003140936       -0.0000307716
  O         0.0003671966        0.0000896184        0.0000122954
  O        -0.0000271144       -0.0002836633        0.0001942168
  O        -0.0000772931        0.0000657649        0.0000280339
  O         0.0001348521       -0.0000076719       -0.0000447651
  O        -0.0001187704        0.0001508093        0.0000833915
  O         0.0001187711       -0.0000587846        0.0003551650
  O        -0.0002344147       -0.0000094802       -0.0001141791
  O         0.0002513200       -0.0000154916       -0.0001464406
  O        -0.0005270645       -0.0000784551       -0.0000000359
  O        -0.0002232743        0.0001236707       -0.0001599403
  O         0.0002654145        0.0001934841        0.0002151391
  O         0.0000874497       -0.0003257854        0.0000559796
  O         0.0000648655        0.0000170601       -0.0000274363
  O        -0.0003286673       -0.0000364864        0.0000818775
  O        -0.0002274848       -0.0000099620       -0.0001058338
  O        -0.0000220243        0.0002585071        0.0001380382
  O        -0.0001503352        0.0000956928        0.0001439958
  H         0.0014146612        0.0010265173        0.0009574808
  H         0.0005986603       -0.0006739900       -0.0003320174
  H         0.0010578640        0.0007765950       -0.0002555074
  H        -0.0007590813       -0.0006787447       -0.0001367264
  H        -0.0011217415        0.0003357771       -0.0003148524
  H        -0.0002722286        0.0014949289        0.0005431624
  H         0.0002552267       -0.0002013827       -0.0002731808
  H        -0.0010495554        0.0002064595        0.0002901671
  H         0.0003904738       -0.0000886828       -0.0012241977
  H        -0.0003214020       -0.0006820659       -0.0006022530
  H         0.0000098615       -0.0002614527       -0.0001844467
  H         0.0000375268       -0.0001980356       -0.0002412752
  H        -0.0010743182       -0.0013444653        0.0000573100
  H         0.0000159162       -0.0002123787       -0.0007736464
  H         0.0002144021        0.0003730197       -0.0017377888
  H         0.0005370880        0.0012472809       -0.0000090763
  H        -0.0010533990       -0.0000232713       -0.0005190725
  H         0.0006212751       -0.0002664928        0.0005527922
  H         0.0004653514        0.0001069603        0.0003856336
  H         0.0008892309       -0.0005461335        0.0005829571
  H         0.0003778768        0.0014314392        0.0009217098
  H         0.0002302119        0.0003637048        0.0002197743
  H        -0.0006227476       -0.0003918831       -0.0012193680
  H        -0.0006976791       -0.0003207993        0.0000093144
  H         0.0011284019        0.0000738301       -0.0004927029
  H         0.0015514082       -0.0005117094        0.0011532487
  H         0.0000986819       -0.0000794281        0.0007600480
  H         0.0003290135        0.0000232218       -0.0002581358
  H         0.0000096069        0.0006218660        0.0005255645
  H         0.0003185768       -0.0007088399        0.0005633908
  H        -0.0001381777        0.0005507989       -0.0001990252
  H         0.0007777683       -0.0007562379        0.0007840142
  H        -0.0004946672        0.0009771933       -0.0011377655
  H         0.0001822784       -0.0008806264        0.0008673265
  H        -0.0001982042        0.0004203714        0.0007647157
  H         0.0008845475        0.0006663708        0.0015359196
  H         0.0002062236        0.0004213279       -0.0001131320
  H         0.0005866947       -0.0000628352       -0.0019411053
  H         0.0007002848        0.0005737700        0.0012630930
  H        -0.0002357188       -0.0004625327       -0.0003657537
  H         0.0001894515       -0.0009636110        0.0004853741
  H        -0.0001568683        0.0010801805       -0.0005018803
  H        -0.0004842062       -0.0002278633       -0.0002609522
  H        -0.0003436492       -0.0015317996       -0.0003544830
  H        -0.0004013898       -0.0011737475        0.0011923727
  H        -0.0002686790        0.0002544534       -0.0008631980
  H         0.0005796363       -0.0001650018       -0.0008309585
  H         0.0000478420        0.0017446718       -0.0004892327
  H        -0.0002146331        0.0009001145        0.0012851816
  H        -0.0011783296        0.0002983555       -0.0004139472
  H         0.0000314396       -0.0013021272       -0.0001440029
  H        -0.0003371713        0.0006061547        0.0007683141
  H        -0.0007799592        0.0000210833       -0.0002431773
  H        -0.0000105828        0.0004943484        0.0006001828
  H         0.0002293121        0.0010991579        0.0000424144
  H         0.0003974580       -0.0007140483        0.0002723335
  H         0.0013807996        0.0004000012       -0.0007961469
  H        -0.0000239744        0.0005201695       -0.0001558043
  H        -0.0005136681        0.0001470777       -0.0009969126
  H         0.0002758649        0.0000761540        0.0003197138
  H        -0.0000031343       -0.0002323991       -0.0016274823
  H        -0.0003659288        0.0003505787       -0.0005578080
  H        -0.0007537231        0.0004845128        0.0009507728
  H         0.0005719938       -0.0000573601        0.0000430754
      96
 i =        2, time =        1.000, E =      -550.5260327709
  O         0.0002673121       -0.0001975507       -0.0001175014
  O         0.0001403338       -0.0001422867       -0.0001141324
  O        -0.0000943035       -0.0001045151       -0.0002270836
  O         0.0003338790       -0.0003143493        0.0001104661
  O         0.0003115679       -0.0001422946        0.0000525506
  O         0.0000851955       -0.0002022266        0.0002314472
  O        -0.0000278959       -0.0001396599        0.0001325806
  O        -0.0002845247       -0.0002573527       -0.0001447702
  O        -0.0002499200        0.0001209797       -0.0002339974
  O        -0.0000421661        0.0003162911       -0.0001624708
  O        -0.0000847087        0.0002821690       -0.0001938321
  O         0.0000748518       -0.0000895430        0.0001606864
  O        -0.0000216146        0.0000444950       -0.0002520071
  O        -0.0001285220       -0.0000901502        0.0001696382
  O        -0.0000551118        0.0003015091       -0.0000405703
  O         0.0003636829        0.0000763353        0.0000034950
  O        -0.0000376946       -0.0002795880        0.0002029128
  O        -0.0000997363        0.0000695477        0.0000253980
  O         0.0001551185       -0.0000099926       -0.0000245935
  O        -0.0001183397        0.0001429613        0.0001111827
  O         0.0001261037       -0.0000894546        0.0003492740
  O        -0.0002580591       -0.0000205948       -0.0001186954
  O         0.0002132618       -0.0000263473       -0.0001556761
  O        -0.0005341423       -0.0000878688       -0.0000010556
  O        -0.0002554457        0.0001049603       -0.0001738058
  O         0.0002501121        0.0002085718        0.0002119755
  O         0.0000712380       -0.0003542948        0.0000523043
  O         0.0000574987        0.0000329002       -0.0000323648
  O        -0.0003425116       -0.0000174825        0.0000788185
  O        -0.0002211069       -0.0000137543       -0.0001118616
  O        -0.0000246794        0.0002841166        0.0001266279
  O        -0.0001723635        0.0000905482        0.0001298656
  H         0.0013223775        0.0011353832        0.0009707169
  H         0.0009135768       -0.0006568282       -0.0001273801
  H         0.0006642558        0.0010201315        0.0000137568
  H        -0.0005322049       -0.0004921929       -0.0004619223
  H        -0.0008937779       -0.0000560448       -0.0002460548
  H        -0.0002258314        0.0015380316        0.0005624786
  H         0.0004679389       -0.0001690813       -0.0004868505
  H        -0.0009893146        0.0004086482        0.0004432498
  H         0.0006344686       -0.0002884217       -0.0012373119
  H        -0.0002763690       -0.0005500492       -0.0007899095
  H         0.0004517296       -0.0001590333       -0.0000435083
  H        -0.0001262546        0.0000565672       -0.0003897660
  H        -0.0009105772       -0.0014386935        0.0001778729
  H         0.0002061158       -0.0000814636       -0.0007665788
  H         0.0000203185        0.0004957085       -0.0018666944
  H         0.0005838356        0.0012740598       -0.0000474152
  H        -0.0009546876        0.0001595061       -0.0007444714
  H         0.0007155878       -0.0001867111        0.0007962067
  H         0.0004895782        0.0002396664        0.0007812282
  H         0.0009298245       -0.0002118591        0.0002266329
  H         0.0003425258        0.0012833954        0.0010873450
  H         0.0003899198        0.0006235024        0.0002579876
  H         0.0000154324       -0.0006017886       -0.0011109731
  H        -0.0007718181        0.0000892122        0.0002116184
  H         0.0012907635        0.0002566703       -0.0005530994
  H         0.0015775226       -0.0005684526        0.0012549778
  H        -0.0000000613       -0.0000638749        0.0004127815
  H         0.0004054183        0.0003773960       -0.0002184225
  H         0.0003906522        0.0007333540        0.0002430476
  H         0.0002565028       -0.0005981233        0.0010490511
  H        -0.0001427768        0.0009151130       -0.0000903868
  H         0.0007776236       -0.0008409634        0.0008823789
  H        -0.0003629551        0.0011566099       -0.0011677197
  H         0.0002597598       -0.0010682582        0.0007676332
  H         0.0001960996        0.0002583881        0.0005883907
  H         0.0008099687        0.0007266383        0.0017234892
  H         0.0000359106        0.0006450096       -0.0003162040
  H         0.0004365560       -0.0003151946       -0.0020961861
  H         0.0008914196        0.0004087722        0.0007599313
  H        -0.0004450312       -0.0001844384       -0.0003280861
  H        -0.0001614365       -0.0005356800        0.0005075161
  H         0.0001852351        0.0011053003       -0.0003785048
  H        -0.0002980895        0.0000298054       -0.0001445486
  H        -0.0001727053       -0.0015706068       -0.0004227692
  H         0.0000358368       -0.0012693785        0.0009340208
  H        -0.0000577099        0.0004968937       -0.0005384071
  H         0.0007840970       -0.0001138698       -0.0007778920
  H         0.0000171840        0.0018153401       -0.0005125979
  H        -0.0000196117        0.0012021028        0.0010888293
  H        -0.0008693042        0.0002930912        0.0000283127
  H         0.0001394428       -0.0012809436       -0.0001997177
  H        -0.0002137154        0.0003393801        0.0009279108
  H        -0.0007926379        0.0003298216       -0.0000813490
  H         0.0002885960        0.0006350715        0.0004915166
  H         0.0005796472        0.0010084185        0.0002377847
  H         0.0001762193       -0.0008075072        0.0001322722
  H         0.0014893537       -0.0000526151       -0.0007819378
  H         0.0000875124        0.0006008591       -0.0000878085
  H        -0.0004951182        0.0002601985       -0.0011254581
  H         0.0001915237        0.0000505515        0.0005987174
  H         0.0001958819       -0.0003988078       -0.0017091024
  H        -0.0005021557        0.0001865945       -0.0003465671
  H        -0.0007368761        0.0007673273        0.0009207188
  H         0.0008249392       -0.0002479905        0.0002497683
      96
 i =        3, time =        1.500, E =      -550.5376203658
  O         0.0002533641       -0.0001955374       -0.0001286958
  O         0.0001517757       -0.0001711486       -0.0001071006
  O        -0.0001091759       -0.0000722999       -0.0002239125
  O         0.0003130096       -0.0003260924        0.0001150106
  O         0.0002931324       -0.0001393160        0.0000668265
  O         0.0000639231       -0.0002283838        0.0002309180
  O        -0.0000424266       -0.0001374468        0.0001303082
  O        -0.0002843573       -0.0002559011       -0.0001339663
  O        -0.0002663072        0.0001000745       -0.0002417982
  O        -0.0000478613        0.0002842513       -0.0001553183
  O        -0.0000877770        0.0002764022       -0.0002069486
  O         0.0000348920       -0.0000958892        0.0001364884
  O        -0.0000183392        0.0000338006       -0.0002463160
  O        -0.0001256790       -0.0001046241        0.0001888394
  O        -0.0000709090        0.0002915685       -0.0000482603
  O         0.0003606887        0.0000650989        0.0000018165
  O        -0.0000426036       -0.0002727820        0.0002065067
  O        -0.0001205904        0.0000775774        0.0000328605
  O         0.0001710106       -0.0000129259       -0.0000092605
  O        -0.0001188324        0.0001357916        0.0001415768
  O         0.0001363407       -0.0001200487        0.0003440219
  O        -0.0002778200       -0.0000378257       -0.0001223314
  O         0.0001707969       -0.0000368415       -0.0001632551
  O        -0.0005380476       -0.0000869509       -0.0000023010
  O        -0.0002882346        0.0000862333       -0.0001885655
  O         0.0002372232        0.0002211861        0.0002071914
  O         0.0000559852       -0.0003792870        0.0000506602
  O         0.0000492053        0.0000461302       -0.0000387105
  O        -0.0003506584        0.0000002322        0.0000756183
  O        -0.0002183153       -0.0000144338       -0.0001188107
  O        -0.0000222943        0.0003048019        0.0001110154
  O        -0.0001893289        0.0000862364        0.0001193765
  H         0.0012757330        0.0011701758        0.0009293636
  H         0.0011761178       -0.0006399493        0.0000397456
  H         0.0002952104        0.0012301555        0.0002771134
  H        -0.0002729367       -0.0002849583       -0.0008243866
  H        -0.0006278178       -0.0004970104       -0.0001531766
  H        -0.0001950341        0.0014765308        0.0004603630
  H         0.0006369129       -0.0001254355       -0.0006628138
  H        -0.0009179815        0.0005463323        0.0005341323
  H         0.0008506829       -0.0004703162       -0.0012492499
  H        -0.0002449946       -0.0004264091       -0.0009681300
  H         0.0008707147       -0.0000631602        0.0000871811
  H        -0.0002562781        0.0002658037       -0.0005095598
  H        -0.0007558937       -0.0015028580        0.0002768985
  H         0.0003691300       -0.0000079494       -0.0007140849
  H        -0.0001031633        0.0005503239       -0.0019203479
  H         0.0005230420        0.0011927731       -0.0001279532
  H        -0.0008574927        0.0003334473       -0.0009423665
  H         0.0007650785       -0.0001391491        0.0009367739
  H         0.0005147125        0.0003403212        0.0010943874
  H         0.0009830854        0.0001886631       -0.0001795623
  H         0.0003025217        0.0011480922        0.0012134635
  H         0.0005346173        0.0008328434        0.0002543967
  H         0.0006792042       -0.0008104821       -0.0009881631
  H        -0.0008267225        0.0004683904        0.0004058716
  H         0.0014162901        0.0003661939       -0.0005985052
  H         0.0014566179       -0.0005367857        0.0012983281
  H        -0.0001088445       -0.0000498460        0.0000276715
  H         0.0004629432        0.0006797717       -0.0001892992
  H         0.0007351194        0.0008284843       -0.0000242279
  H         0.0001981639       -0.0005132655        0.0014855923
  H        -0.0001404395        0.0011842857        0.0000205739
  H         0.0007630479       -0.0008617666        0.0008680547
  H        -0.0002994606        0.0012191491       -0.0011281587
  H         0.0003185667       -0.0011773181        0.0006813378
  H         0.0005802531        0.0000984653        0.0004060973
  H         0.0007124752        0.0007173105        0.0017557978
  H        -0.0001053303        0.0008148042       -0.0004735054
  H         0.0003255818       -0.0005054386       -0.0022227555
  H         0.0011005579        0.0002322758        0.0002162813
  H        -0.0006576739        0.0000942054       -0.0002920886
  H        -0.0005317909       -0.0000957871        0.0005298870
  H         0.0005029421        0.0011170901       -0.0002654681
  H        -0.0001010405        0.0002756224       -0.0000274801
  H        -0.0000726096       -0.0014960570       -0.0005060297
  H         0.0005347220       -0.0013887799        0.0006283783
  H         0.0001643781        0.0007567358       -0.0001917108
  H         0.0008825669       -0.0000864876       -0.0007486757
  H         0.0000432924        0.0017468266       -0.0005076141
  H         0.0001800628        0.0015128939        0.0008791216
  H        -0.0005574593        0.0002812009        0.0004953624
  H         0.0002070045       -0.0012502183       -0.0002094189
  H        -0.0000893311        0.0001009242        0.0010673141
  H        -0.0007942349        0.0005875958        0.0000403007
  H         0.0005640131        0.0007728504        0.0003912156
  H         0.0009160022        0.0009223147        0.0004217203
  H        -0.0000167878       -0.0008605940        0.0000244660
  H         0.0015787473       -0.0004671828       -0.0007711169
  H         0.0001272842        0.0006617116       -0.0000157300
  H        -0.0004357022        0.0003044147       -0.0011955383
  H         0.0001244426        0.0000422177        0.0008347649
  H         0.0003189414       -0.0004726829       -0.0017284136
  H        -0.0006377217        0.0000115066       -0.0001329559
  H        -0.0007350669        0.0009743510        0.0008704535
  H         0.0010134622       -0.0003783023        0.0004149592
      96
 i =        4, time =        2.000, E =      -550.5514698229
  O         0.0002419200       -0.0001891125       -0.0001335034
  O         0.0001596775       -0.0001949989       -0.0000987659
  O        -0.0001229659       -0.0000356293       -0.0002154057
  O         0.0002952069       -0.0003337783        0.0001205358
  O         0.0002792871       -0.0001373668        0.0000791079
  O         0.0000437298       -0.0002487104        0.0002293792
  O        -0.0000532157       -0.0001345619        0.0001269049
  O        -0.0002837183       -0.0002446936       -0.0001257785
  O        -0.0002791958        0.0000831951       -0.0002462082
  O        -0.0000538033        0.0002545606       -0.0001415714
  O        -0.0000890533        0.0002731935       -0.0002134926
  O        -0.0000025372       -0.0000995976        0.0001148878
  O        -0.0000051278        0.0000238850       -0.0002382818
  O        -0.0001211024       -0.0001139031        0.0002080427
  O        -0.0000826457        0.0002865988       -0.0000525211
  O         0.0003581461        0.0000575898        0.0000066254
  O        -0.0000421481       -0.0002642897        0.0002050727
  O        -0.0001366781        0.0000880187        0.0000482451
  O         0.0001813848       -0.0000166645       -0.0000003083
  O        -0.0001197276        0.0001299899        0.0001692724
  O         0.0001482036       -0.0001461975        0.0003406680
  O        -0.0002926359       -0.0000582511       -0.0001249891
  O         0.0001299469       -0.0000464524       -0.0001694669
  O        -0.0005377792       -0.0000770639       -0.0000035935
  O        -0.0003173235        0.0000697397       -0.0002024031
  O         0.0002269540        0.0002294632        0.0002018761
  O         0.0000435302       -0.0003989283        0.0000512497
  O         0.0000421119        0.0000549260       -0.0000458392
  O        -0.0003522698        0.0000136273        0.0000722611
  O        -0.0002197597       -0.0000124287       -0.0001251439
  O        -0.0000165007        0.0003196292        0.0000930353
  O        -0.0002002688        0.0000828752        0.0001132771
  H         0.0012719285        0.0011310222        0.0008334360
  H         0.0013583417       -0.0006186838        0.0001547910
  H        -0.0000099590        0.0013741463        0.0005145443
  H        -0.0000232703       -0.0000940753       -0.0011779571
  H        -0.0003665830       -0.0009198393       -0.0000477518
  H        -0.0001737405        0.0013268701        0.0002628168
  H         0.0007402185       -0.0000724610       -0.0007866758
  H        -0.0008333534        0.0006082924        0.0005549160
  H         0.0010130239       -0.0006094055       -0.0012596690
  H        -0.0002338718       -0.0003310316       -0.0011153882
  H         0.0012198359        0.0000071596        0.0001908103
  H        -0.0003374103        0.0004109524       -0.0005880288
  H        -0.0006263295       -0.0015218273        0.0003431022
  H         0.0004987366        0.0000034266       -0.0006120455
  H        -0.0001579389        0.0005357386       -0.0018943262
  H         0.0003771550        0.0010236068       -0.0002416933
  H        -0.0007715402        0.0004783019       -0.0010847878
  H         0.0007662595       -0.0001234037        0.0009692878
  H         0.0005409206        0.0004023801        0.0013008347
  H         0.0010413882        0.0005874583       -0.0005768082
  H         0.0002568539        0.0010412687        0.0012815620
  H         0.0006599649        0.0009714216        0.0002023304
  H         0.0012788750       -0.0009805283       -0.0008723491
  H        -0.0008548547        0.0007718031        0.0005688085
  H         0.0014987579        0.0003912500       -0.0006260952
  H         0.0012191895       -0.0004376004        0.0012925948
  H        -0.0002143522       -0.0000391404       -0.0003387859
  H         0.0004911614        0.0009022402       -0.0001794539
  H         0.0010033483        0.0008882632       -0.0002532139
  H         0.0001494033       -0.0004718595        0.0018297109
  H        -0.0001285011        0.0013382045        0.0001311383
  H         0.0007340531       -0.0008246177        0.0007545523
  H        -0.0002945494        0.0011736293       -0.0010218973
  H         0.0003542400       -0.0011997890        0.0006105021
  H         0.0009006566       -0.0000404482        0.0002296768
  H         0.0005946577        0.0006483734        0.0016571323
  H        -0.0002104007        0.0009122166       -0.0005727230
  H         0.0002644856       -0.0006126691       -0.0023093832
  H         0.0012931329        0.0000717076       -0.0002883621
  H        -0.0008479210        0.0003347478       -0.0002530887