#     Step Nr.          Time[fs]        Kin.[a.u.]          Temp[K]            Pot.[a.u.]        Cons Qty[a.u.]        UsedTime[s]
         0            0.000000         0.135381356       300.000000000      -550.523994877      -550.388613521         0.000000000
         1            0.500000         0.132417944       293.433191072      -550.521343866      -550.388925921        23.209111521
         2            1.000000         0.137064507       303.729800443      -550.526032771      -550.388968263         2.025631402
         3            1.500000         0.148367378       328.776537625      -550.537620366      -550.389252988         1.831721084
         4            2.000000         0.161819083       358.585009626      -550.551469823      -550.389650740         1.644301144
         5            2.500000         0.171239280       379.459813669      -550.561178411      -550.389939130         1.622026678
         6            3.000000         0.172063412       381.286058872      -550.562014435      -550.389951023         2.399113053
         7            3.500000         0.163605355       362.543320795      -550.553309199      -550.389703844         1.669000313
         8            4.000000         0.149022397       330.228034265      -550.538361988      -550.389339591         1.656691466
         9            4.500000         0.133533980       295.906283320      -550.522531358      -550.388997378         1.480820358
        10            5.000000         0.122218327       270.831222498      -550.511000510      -550.388782183         1.644687811
        11            5.500000         0.118450383       262.481599218      -550.507172602      -550.388722219         1.664896047
        12            6.000000         0.123223283       273.058167533      -550.512032320      -550.388809036         1.462183168
        13            6.500000         0.135234271       299.674064492      -550.524247943      -550.389013672         1.647441855
        14            7.000000         0.151527592       335.779452579      -550.540782423      -550.389254831         1.648454139
        15            7.500000         0.168362384       373.084719820      -550.557847967      -550.389485583         1.469576923
        16            8.000000         0.182162746       403.665803681      -550.571843305      -550.389680559         1.668003719
        17            8.500000         0.190354215       421.817790016      -550.580120989      -550.389766775         1.641761862
        18            9.000000         0.191841256       425.113017501      -550.581563940      -550.389722684         1.668371933
        19            9.500000         0.187364290       415.192228491      -550.576930763      -550.389566474         1.641252957
        20           10.000000         0.179579635       397.941726839      -550.568902737      -550.389323102         1.644164735
        21           10.500000         0.172389581       382.008836441      -550.561470509      -550.389080928         1.672635121
        22           11.000000         0.169472529       375.544758244      -550.558435306      -550.388962778         1.647689672
        23           11.500000         0.172529784       382.319521649      -550.561570334      -550.389040550         1.647145204
        24           12.000000         0.180342135       399.631398368      -550.569606454      -550.389264319         1.641836390
        25           12.500000         0.189402774       419.709432480      -550.578918508      -550.389515734         1.832367072
        26           13.000000         0.195660710       433.576785072      -550.585334517      -550.389673807         1.864277404
        27           13.500000         0.196323596       435.045714533      -550.585995542      -550.389671946         1.459632244
        28           14.000000         0.190933235       423.100878422      -550.580459083      -550.389525847         1.649120361
        29           14.500000         0.181380796       401.933030464      -550.570669233      -550.389288437         1.647435589
        30           15.000000         0.170939615       378.795766755      -550.559988050      -550.389048435         1.467797263
        31           15.500000         0.162890540       360.959319057      -550.551777583      -550.388887043         1.479148716
        32           16.000000         0.159465298       353.369110079      -550.548306958      -550.388841660         1.809055796
        33           16.500000         0.161389703       357.633520679      -550.550274518      -550.388884815         1.616707733
        34           17.000000         0.167940228       372.149236864      -550.556939002      -550.388998774         1.623936180
        35           17.500000         0.177334401       392.966371331      -550.566481942      -550.389147542         1.623052761
        36           18.000000         0.187264582       414.971281334      -550.576556787      -550.389292205         1.843466604
        37           18.500000         0.195484576       433.186479025      -550.584881673      -550.389397097         1.406751476
        38           19.000000         0.200433172       444.152380531      -550.589866111      -550.389432939         1.605389977
        39           19.500000         0.201699758       446.959087797      -550.591090231      -550.389390473         1.621428564
        40           20.000000         0.200070388       443.348465755      -550.589369946      -550.389299558         1.621294335
        41           20.500000         0.197098314       436.762461816      -550.586295780      -550.389197466         1.825229928
        42           21.000000         0.194439776       430.871239960      -550.583567308      -550.389127532         1.561038079
        43           21.500000         0.193229028       428.188269179      -550.582345540      -550.389116511         1.475384777
        44           22.000000         0.193580578       428.967289437      -550.582760067      -550.389179490         1.610574923
        45           22.500000         0.194447173       430.887632442      -550.583736213      -550.389289040         1.799450420
        46           23.000000         0.194159564       430.250301329      -550.583517269      -550.389357705         1.832390182
        47           23.500000         0.191525889       424.414177418      -550.580850542      -550.389324652         1.633514551
        48           24.000000         0.186686563       413.690412521      -550.575897181      -550.389210618         1.795363331
        49           24.500000         0.180947152       400.972093089      -550.570034811      -550.389087659         1.244042637
        50           25.000000         0.175780092       389.522082832      -550.564812532      -550.389032439         1.786822274
        51           25.500000         0.172011770       381.171622534      -550.561028080      -550.389016310         1.812421046
        52           26.000000         0.169748126       376.155471950      -550.558762064      -550.389013938         1.621315509
        53           26.500000         0.168823257       374.105996583      -550.557835472      -550.389012215         1.646615418
        54           27.000000         0.169065242       374.642226722      -550.558086740      -550.389021498         1.503056379
        55           27.500000         0.170199317       377.155292961      -550.559252242      -550.389052926         1.512170643
        56           28.000000         0.171786244       380.671864477      -550.560875901      -550.389089657         1.641475013
        57           28.500000         0.173355682       384.149679530      -550.562464188      -550.389108506         1.617232306
        58           29.000000         0.174653146       387.024810724      -550.563762026      -550.389108881         1.618924160
        59           29.500000         0.175685343       389.312121923      -550.564802132      -550.389116789         1.797495300
        60           30.000000         0.176465448       391.040805110      -550.565606044      -550.389140596         1.889935594
        61           30.500000         0.176760204       391.693973413      -550.565934431      -550.389174227         1.572729634
        62           31.000000         0.176254961       390.574374470      -550.565431641      -550.389176680         1.608575197
        63           31.500000         0.175122413       388.064690010      -550.564240256      -550.389117843         1.437650489
        64           32.000000         0.174394883       386.452510512      -550.563425600      -550.389030717         1.611338612
        65           32.500000         0.175400796       388.681576254      -550.564396707      -550.388995911         1.612372899
        66           33.000000         0.178504674       395.559652950      -550.567570049      -550.389065375         1.634071784
        67           33.500000         0.182567544       404.562819875      -550.571756409      -550.389188866         1.798041161
        68           34.000000         0.185733054       411.577471426      -550.574991170      -550.389258116         1.801246205
        69           34.500000         0.186728862       413.784144432      -550.575960461      -550.389231599         1.617045157
        70           35.000000         0.185560091       411.194192577      -550.574704138      -550.389144046         1.620627156
        71           35.500000         0.183248853       406.072576634      -550.572297948      -550.389049094         1.642175538
        72           36.000000         0.181035710       401.168334106      -550.570023381      -550.388987671         1.620829552
        73           36.500000         0.179728469       398.271537405      -550.568697928      -550.388969459         1.617732933
        74           37.000000         0.179533520       397.839538206      -550.568516577      -550.388983056         1.795639087
        75           37.500000         0.180244489       399.415017924      -550.569245332      -550.389000843         1.794348437
        76           38.000000         0.181516741       402.234281006      -550.570526472      -550.389009731         1.638326531
        77           38.500000         0.183126586       405.801636534      -550.572128501      -550.389001915         1.477262251
        78           39.000000         0.185140982       410.265463166      -550.574131458      -550.388990476         1.441904858
        79           39.500000         0.187809821       416.179509258      -550.576792836      -550.388983015         1.617466727
        80           40.000000         0.191098972       423.468145504      -550.580126460      -550.389027488         1.617647875
        81           40.500000         0.194273636       430.503079812      -550.583395767      -550.389122131         1.827301100
        82           41.000000         0.196051526       434.442817673      -550.585247014      -550.389195489         1.628393888
        83           41.500000         0.195354986       432.899310761      -550.584553159      -550.389198173         1.622761959
        84           42.000000         0.192130490       425.753950439      -550.581251763      -550.389121273         1.619658832
        85           42.500000         0.187609685       415.736016653      -550.576596478      -550.388986792         1.616307512
        86           43.000000         0.183809351       407.314617319      -550.572673673      -550.388864322         1.635600893
        87           43.500000         0.182542940       404.508298595      -550.571369961      -550.388827021         1.806070013
        88           44.000000         0.184377545       408.573715366      -550.573276407      -550.388898862         1.804735783
        89           44.500000         0.188277845       417.216634034      -550.577302622      -550.389024776         1.616159536
        90           45.000000         0.192349285       426.238791281      -550.581472931      -550.389123646         1.622772602
        91           45.500000         0.195038900       432.198876024      -550.584189751      -550.389150852         1.575995935
        92           46.000000         0.195821448       433.932973014      -550.584951499      -550.389130052         1.621090727
        93           46.500000         0.195011821       432.138871652      -550.584099617      -550.389087796         1.624228092
        94           47.000000         0.193086006       427.871337314      -550.582151752      -550.389065746         1.624486858
        95           47.500000         0.190276418       421.645395717      -550.579332394      -550.389055976         1.623371176
        96           48.000000         0.186707043       413.735794786      -550.575737920      -550.389030877         1.824453235
        97           48.500000         0.182795454       405.067861586      -550.571756137      -550.388960682         1.805479430
        98           49.000000         0.179387560       397.516094800      -550.568271247      -550.388883688         1.625059914
        99           49.500000         0.177376548       393.059769020      -550.566226505      -550.388849957         1.625180271
       100           50.000000         0.177097494       392.441394181      -550.565976148      -550.388878654         1.442939181
